# vtk DataFile Version 4.0
vtk output
ASCII
DATASET UNSTRUCTURED_GRID
POINTS 4844 double
388.16 178.693 0 389.528 176.638 0 391.582 179.753 0 
84.5957 322.518 1 49.8758 338.275 1 49.3563 272.138 1 
312.27 503.978 1 311 500 0.733333 314.453 501.72 1 
208 330 0.333333 213.163 336.089 0 202.74 335.09 0 
185.5 599 1 127 599 1 144.11 557.929 1 
566.876 167.585 1 558.496 177.496 1 557.991 158.124 1 
444.903 390.907 1 448.241 387.759 1 449.381 391.906 1 
271.183 574.319 1 244 599 1 243.84 561.369 1 
543.752 126.818 0 541.478 124.358 0 545 123 0.8 
365.157 217.35 0 370.854 210.936 0 371.435 221.042 0 
507.791 544.528 1 478 599 1 463.375 564.821 1 
354.092 572.685 1 361 599 1 331.75 599 1 
372.877 29.8002 1 361.764 50.039 1 361 10 1 
348.141 384.784 1 348.155 377.521 1 353.494 381.777 1 
289.683 446.357 0 287.813 445.25 0 290.131 443.468 0 
164.261 174.83 1 162.184 173.357 1 164.566 172.199 1 
388.521 453.905 0 393.525 451.875 0 393.886 455.471 0 
183.467 243.206 0 183.417 240.016 0 185.565 241.578 0 
51.6851 523.324 1 95.3958 515.753 1 90.3646 545.046 1 
503.456 508.75 1 477.501 525 1 485.491 483.953 1 
419.607 459.821 1 416 458.5 0.4 420 456 0.533333 
121.547 170.387 1 125.293 163.515 1 129 168 0.533333 
478.488 65.5516 1 483.622 85.5736 1 465.451 80.5702 1 
398.027 163.081 0 395 159 0.933333 398 158 0.4 
545.86 110.041 1 551.441 113.182 1 545.3 115 1 
488.223 375.359 1 471.173 379.633 1 475.396 363.514 1 
337.174 463.424 0.533333 337.5 463.5 0.533333 337.25 463.75 0.533333 
374.232 186.089 1 376.364 183.543 1 377.5 185.5 0.733333 
177.315 198.584 0 175.038 197.045 0 178.25 196 0.6 
157.115 170.362 1 157.788 171.212 1 156.87 171.309 0.933333 
166.684 402.979 0 166.36 401.429 0 167.618 401.974 0 
396.236 394.318 1 397.084 393.463 1 397 395.25 0.733333 
274.25 415.25 0.333333 276 419 0.266667 271.445 418.842 1 
369.934 309.255 1 372.154 308.266 1 371.659 310.967 1 
319 288 0.533333 317 288 0.933333 318 285 1 
276.543 318.836 1 273.539 316.108 1 277.529 313.614 1 
153.067 223.321 1 158.092 226.605 1 152.564 229.577 1 
284.585 305.439 1 290.115 312.962 1 282.644 311.552 1 
207.901 393.53 0 206.995 393.879 0 206.866 392.758 0 
167.256 206.143 0 161.914 205.406 0 164.686 200.867 0 
175 407.5 0.2 173 407 0.333333 173.494 405.509 0 
123.565 322.81 1 126.71 343.083 1 103.978 336.229 1 
152.526 411.951 1 145.321 416.361 1 149.036 404.232 1 
233.689 429.975 1 222.71 431.562 1 227.261 421.04 1 
344.316 304.996 0 347.574 309.691 0 338.877 312.316 0 
389.613 284.267 1 383.843 291.869 1 380.304 286.37 1 
364.877 202.489 1 363.718 202.217 1 364.687 201.525 1 
524.931 134.969 0 531.717 139.742 0 524.368 143.368 0 
539.125 120.75 0.8 540 121 0.666667 540 122 0.266667 
353.517 234.445 0 359.738 232.651 0 355.64 239.507 0 
437.185 122.284 1 437.75 129 0.733333 430.675 127.755 1 
601.065 157.736 1 582.137 147.364 1 587.724 124.433 1 
513.37 88.6675 1 506.484 104.223 1 503.383 85.8835 1 
357.038 223.213 0 362.085 226.368 0 356.007 226.859 0 
427.809 56.2478 1 414.596 69.5959 1 403.313 45.2135 1 
333.121 287.756 0 341.654 285.344 0 340.396 295.919 0 
371 292 0.4 366.375 293.931 0 363.46 287.526 0 
293.776 222.875 1 266.769 236.286 1 267.503 212.931 1 
232.329 253.976 1 231.863 257.455 1 226.5 255.5 0.933333 
446.341 439.182 1 440 434 0.533333 446.39 432.596 1 
425.606 457.804 1 422.429 457.214 1 424 455 0.866667 
479.812 445.217 1 469.676 433.254 1 482.492 426.566 1 
347.864 467.648 1 345.548 466.082 1 348.668 463.177 1 
366.5 300.25 0.333333 364.498 297.374 0 368 297.5 0.333333 
209.17 251.989 0 205.25 253.25 0 204.021 246.808 0 
155.098 177.965 0 157.95 179.414 0 155.647 182.475 0 
182.242 160.529 1 191.875 157.671 1 189.16 166.185 1 
145.23 173.335 0 142.985 170.311 0 145.963 169.471 0 
138.849 477.721 1 182.2 486.235 1 139.411 513.685 1 
337.39 462.64 0.6 337.649 462.899 0.6 337.244 463.045 0.533333 
292.271 406.381 0 289.573 419.397 0 285.267 413.881 0 
249.95 343.294 0 249 357 0.6 245 349 0.6 
280.307 485.906 0 283.676 485.175 0 284.694 489.887 0 
255.327 533.932 1 244.278 522.222 1 262.358 511.142 1 
342.261 457.714 1 342.417 459.401 1 340.567 457.671 1 
428.803 459.31 1 431.751 461.263 1 428.585 464.816 1 
429.364 438.656 0 426.867 442.089 0 422.968 439.012 0 
397.165 447.942 0 388.296 446.168 0 437.454 368.19 1 
447.544 373.838 1 439.842 379.504 1 417.399 454.39 0 
414.412 455.666 0 392.311 459.923 0.066667 393 461 0.4 
391.875 461.125 0.533333 389.948 427.014 0 382.922 420.3 0 
390.711 417.326 0 363.612 204.642 0.933333 362.271 204.617 1 
363.277 203.73 1 167.311 180.689 1 166 183 0.466667 
165 182 0.333333 351.245 326.045 0.066667 351.434 322.985 0 
353.25 326 0.4 235 269 0.6 236 270 0.666667 
234.5 270.5 0.2 205.666 231.28 0.133333 205.71 232.826 0.066667 
204.857 231.536 0 251.012 184.129 1 247.209 197.02 1 
237.825 186.725 1 192.5 261.5 0.666667 192 263 1 
190.75 261.75 1 176.602 182.898 1 172.914 175.086 1 
178.315 173.055 1 196.89 250.36 0 197.755 245.674 0 
192.902 210.476 0.933333 192 213 0.466667 190.5 211.125 0.333333 
172.64 404.19 0 175.32 403.391 0 253.605 472.097 1 
250.862 484.394 1 237.475 465.528 1 196.377 272.193 1 
196.225 270.506 1 197.875 270.125 1 164.989 251.176 1 
156.731 246.192 1 161.526 243.1 1 158.528 454.776 1 
178 447.089 1 185.257 466.108 1 168.786 401.221 0 
169.128 403.24 0 178.505 351.087 0.066667 177.5 349 0.6 
179.527 349.008 0.133333 125.586 410.981 1 121.658 398.563 1 
138.524 409.488 1 226.405 369.417 0 229 371 0.2 
226.875 373.055 0 233.038 318.24 0 235.847 320.637 0 
231.5 322.5 0.6 219.256 388.756 1 216.189 390.939 0.933333 
215.5 388.5 0.2 169.714 371.397 0 175.039 365.252 0 
178.593 373.13 0 178 405.39 0 178 402.594 0 
181.173 403.992 0 223.052 410.869 1 233.342 411.865 1 
343.86 234.005 1 345.702 232.195 1 346.75 233.5 0.866667 
365.557 204.544 0.533333 365 205 0.4 364.875 204.313 0.866667 
545 138 0.4 539.625 130.375 0 548 130 0.533333 
537.313 108.115 1 535.116 110.007 1 533.847 104.668 1 
554.77 134.189 1 554.579 126.23 1 564.13 123.843 1 
526.935 126.78 0 526.277 130.959 0 522.884 127.424 0 
480.204 164.723 0 495.125 177.75 1 478.25 192.5 1 
352.28 194.755 1 353.268 198.557 1 346.748 196.716 1 
383.696 177.785 0.6 383.864 178.458 0.4 382.905 178.34 0.733333 
368 199 0.6 367.579 198.014 0.866667 368.625 198.25 0.8 
362.736 307.296 0.133333 362.375 307.129 0.133333 363 307 0.4 
236.421 268.579 1 238.099 269.21 1 534.653 153.653 1 
530 152 0.733333 533 149 0.333333 513.688 121.275 0 
515.302 128.55 0 502.81 124.953 0 388.219 165.131 1 
385.907 162.002 1 392.317 163.878 0.933333 379.669 178.514 1 
379.75 181.75 0.8 376.991 181.37 1 363.37 306.306 0.2 
364 306 0.733333 363.563 306.688 0.2 317.5 291.5 0.733333 
347.262 241.569 0 343 241 0.6 344.25 238.5 0.733333 
348 231 0.666667 348.625 230.063 0.933333 349 231 0.466667 
366.117 205.611 0.133333 367.385 206.232 0 365.263 206.463 0.2 
378.837 189.769 0 382.454 189.535 0 382.504 193.302 0 
422.5 454.5 0.266667 442.365 445.253 1 436.904 447.569 1 
435.5 440.5 0.066667 443.617 419.073 0 445.25 418.75 0.333333 
445 420 0.266667 434.808 413.061 0 435.141 416.861 0 
429.099 412.701 0 358.562 405.017 0 367.6 404.3 0 
363.806 413.798 0 410.64 402.641 0 410.561 397.989 0 
413.634 398.277 0 148.672 211.567 1 152.5 211.5 0.466667 
151.845 213.71 1 161.059 167.339 1 165.805 166.067 1 
165.823 169.262 1 155.493 170.764 1 156 171 0.933333 
155.5 171.25 0.8 244.246 151.461 1 219.952 145.372 1 
243.033 126.947 1 148.718 175.665 0 148.167 173.379 0 
150.339 173.961 0 131.226 221.362 1 127.061 216.845 1 
134.665 216.271 1 150.482 198.465 0 150.322 194.635 0 
154.394 199.278 0 144.353 196.615 0 143 200.25 0.466667 
141.5 198.375 0.466667 155.291 216.468 0.933333 156.563 216.188 0.866667 
155.806 217.664 1 138.863 200.161 1 140.918 200.803 1 
138.522 203.978 1 329.771 500.71 0.933333 333.46 499.42 1 
335.003 502.507 1 304.298 496.48 0 307 498 0 
305 499.5 0.2 263.757 399.847 1 264.408 397.54 1 
266 399 0.933333 242.44 339.03 0.066667 241 341 0.6 
240 339 0.466667 336.465 461.327 0.466667 334.742 462.276 0 
333.775 460.781 0 346.319 391.408 1 348.125 388.175 1 
350 391 0.266667 393.207 392.033 1 395.99 389.086 1 
395.73 392.293 1 399.877 360.693 1 400.269 374.066 1 
391.5 371.125 1 171.545 398.351 0 171 395.688 0 
173.71 396.52 0 167.045 421.288 1 169.898 424.721 1 
161.799 423.577 1 284.262 501.895 1 279 498 0.4 
283.5 498.5 0.133333 288.179 502.55 1 285.179 505.251 1 
309.263 490.919 0 307.893 494.579 0 304.507 489.483 0 
267.992 482.352 1 273 485 0.933333 270.118 487.603 1 
360.408 452.368 1 357.476 458.286 1 354.091 454.296 1 
339.289 427.67 1 336.16 429.129 1 335.26 426.5 1 
338.34 498.909 1 344.081 503.93 1 309.688 497.625 0 
313.797 497.347 0 357.809 353.596 1 357.5 363.365 1 
345.15 362.408 1 354.164 397.375 0 350 399.5 0.066667 
350 395.25 0.133333 598.365 464.227 1 543.965 465.092 1 
556.082 429.989 1 440.136 417.727 0 438.813 420.357 0 
360.5 428 0.533333 355 419 0.6 361.353 390.942 0 
357.5 394.1 0 357.5 390.035 0 362.424 311.759 0.733333 
363.072 314.11 1 361.231 313.353 0.8 360.691 385.426 0.866667 
361.753 384.176 1 362.249 385.938 0.866667 280.5 436.25 0.733333 
282.551 434.614 0.133333 282.726 436.936 0.2 317.406 407.941 0 
321.125 408.5 0.2 316.58 411.61 0 196 268.25 1 
197 269 0.8 143.47 337.343 1 152.321 350.361 1 
138.217 351.292 1 356.12 307.004 0 355.323 304.746 0 
357.601 305.121 0 304.393 302.048 1 310 307.5 0.533333 
298.869 308.417 1 237 272 0.333333 238 271 0.866667 
257.182 339.323 0 248.863 335.818 0 262.37 311.079 0 
265 310 0.4 266.125 311.625 0.666667 292.915 353.781 0 
289.539 355.71 0 291.007 352.938 0 239.375 273.25 0.933333 
240.75 275.5 0.666667 235.941 276.894 0 238.574 263.136 1 
239.5 265.5 1 237.301 265.332 1 201.261 271.102 0.133333 
203.272 272.146 0 200.5 273.5 0.733333 178 240.25 0.533333 
177 239 0.533333 178.697 238.667 0.133333 197 267.5 0.533333 
211.731 298.462 1 220 302 0.4 214.433 308.037 1 
205.054 234.842 0 204.167 232.917 0 180 198 0.533333 
180 196 1 183.856 193.25 1 208.212 235.543 0.066667 
[...]
CELL_DATA 9630
SCALARS scalars float
LOOKUP_TABLE lookup_table
0 0.000103853 0.000207706 0.000311559 0.000415412 0.000519265 0.000623118 0.000726971 0.000830824 
0.000934677 0.00103853 0.00114238 0.00124624 0.00135009 0.00145394 0.00155779 0.00166165 0.0017655 
0.00186935 0.00197321 0.00207706 0.00218091 0.00228476 0.00238862 0.00249247 0.00259632 0.00270018 
0.00280403 0.00290788 0.00301174 0.00311559 0.00321944 0.00332329 0.00342715 0.003531 0.00363485 
0.00373871 0.00384256 0.00394641 0.00405026 0.00415412 0.00425797 0.00436182 0.00446568 0.00456953 
0.00467338 0.00477724 0.00488109 0.00498494 0.00508879 0.00519265 0.0052965 0.00540035 0.00550421 
0.00560806 0.00571191 0.00581576 0.00591962 0.00602347 0.00612732 0.00623118 0.00633503 0.00643888 
0.00654274 0.00664659 0.00675044 0.00685429 0.00695815 0.007062 0.00716585 0.00726971 0.00737356 
0.00747741 0.00758126 0.00768512 0.00778897 0.00789282 0.00799668 0.00810053 0.00820438 0.00830824 
0.00841209 0.00851594 0.00861979 0.00872365 0.0088275 0.00893135 0.00903521 0.00913906 0.00924291 
0.00934676 0.00945062 0.00955447 0.00965832 0.00976218 0.00986603 0.00996988 0.0100737 0.0101776 
0.0102814 0.0103853 0.0104891 0.010593 0.0106969 0.0108007 0.0109046 0.0110084 0.0111123 
0.0112161 0.01132 0.0114238 0.0115277 0.0116315 0.0117354 0.0118392 0.0119431 0.0120469 
0.0121508 0.0122546 0.0123585 0.0124624 0.0125662 0.0126701 0.0127739 0.0128778 0.0129816 
0.0130855 0.0131893 0.0132932 0.013397 0.0135009 0.0136047 0.0137086 0.0138124 0.0139163 
0.0140201 0.014124 0.0142279 0.0143317 0.0144356 0.0145394 0.0146433 0.0147471 0.014851 
0.0149548 0.0150587 0.0151625 0.0152664 0.0153702 0.0154741 0.0155779 0.0156818 0.0157856 
0.0158895 0.0159934 0.0160972 0.0162011 0.0163049 0.0164088 0.0165126 0.0166165 0.0167203 
0.0168242 0.016928 0.0170319 0.0171357 0.0172396 0.0173434 0.0174473 0.0175511 0.017655 
0.0177589 0.0178627 0.0179666 0.0180704 0.0181743 0.0182781 0.018382 0.0184858 0.0185897 
0.0186935 0.0187974 0.0189012 0.0190051 0.0191089 0.0192128 0.0193166 0.0194205 0.0195244 
0.0196282 0.0197321 0.0198359 0.0199398 0.0200436 0.0201475 0.0202513 0.0203552 0.020459 
0.0205629 0.0206667 0.0207706 0.0208744 0.0209783 0.0210821 0.021186 0.0212899 0.0213937 
0.0214976 0.0216014 0.0217053 0.0218091 0.021913 0.0220168 0.0221207 0.0222245 0.0223284 
0.0224322 0.0225361 0.0226399 0.0227438 0.0228476 0.0229515 0.0230554 0.0231592 0.0232631 
0.0233669 0.0234708 0.0235746 0.0236785 0.0237823 0.0238862 0.02399 0.0240939 0.0241977 
0.0243016 0.0244054 0.0245093 0.0246131 0.024717 0.0248209 0.0249247 0.0250286 0.0251324 
0.0252363 0.0253401 0.025444 0.0255478 0.0256517 0.0257555 0.0258594 0.0259632 0.0260671 
0.0261709 0.0262748 0.0263786 0.0264825 0.0265864 0.0266902 0.0267941 0.0268979 0.0270018 
0.0271056 0.0272095 0.0273133 0.0274172 0.027521 0.0276249 0.0277287 0.0278326 0.0279364 
0.0280403 0.0281441 0.028248 0.0283519 0.0284557 0.0285596 0.0286634 0.0287673 0.0288711 
0.028975 0.0290788 0.0291827 0.0292865 0.0293904 0.0294942 0.0295981 0.0297019 0.0298058 
0.0299096 0.0300135 0.0301174 0.0302212 0.0303251 0.0304289 0.0305328 0.0306366 0.0307405 
0.0308443 0.0309482 0.031052 0.0311559 0.0312597 0.0313636 0.0314674 0.0315713 0.0316751 
0.031779 0.0318829 0.0319867 0.0320906 0.0321944 0.0322983 0.0324021 0.032506 0.0326098 
0.0327137 0.0328175 0.0329214 0.0330252 0.0331291 0.0332329 0.0333368 0.0334406 0.0335445 
0.0336484 0.0337522 0.0338561 0.0339599 0.0340638 0.0341676 0.0342715 0.0343753 0.0344792 
0.034583 0.0346869 0.0347907 0.0348946 0.0349984 0.0351023 0.0352061 0.03531 0.0354139 
0.0355177 0.0356216 0.0357254 0.0358293 0.0359331 0.036037 0.0361408 0.0362447 0.0363485 
0.0364524 0.0365562 0.0366601 0.0367639 0.0368678 0.0369716 0.0370755 0.0371794 0.0372832 
0.0373871 0.0374909 0.0375948 0.0376986 0.0378025 0.0379063 0.0380102 0.038114 0.0382179 
0.0383217 0.0384256 0.0385294 0.0386333 0.0387371 0.038841 0.0389449 0.0390487 0.0391526 
0.0392564 0.0393603 0.0394641 0.039568 0.0396718 0.0397757 0.0398795 0.0399834 0.0400872 
0.0401911 0.0402949 0.0403988 0.0405026 0.0406065 0.0407104 0.0408142 0.0409181 0.0410219 
0.0411258 0.0412296 0.0413335 0.0414373 0.0415412 0.041645 0.0417489 0.0418527 0.0419566 
0.0420604 0.0421643 0.0422681 0.042372 0.0424759 0.0425797 0.0426836 0.0427874 0.0428913 
0.0429951 0.043099 0.0432028 0.0433067 0.0434105 0.0435144 0.0436182 0.0437221 0.0438259 
0.0439298 0.0440336 0.0441375 0.0442414 0.0443452 0.0444491 0.0445529 0.0446568 0.0447606 
0.0448645 0.0449683 0.0450722 0.045176 0.0452799 0.0453837 0.0454876 0.0455914 0.0456953 
0.0457991 0.045903 0.0460069 0.0461107 0.0462146 0.0463184 0.0464223 0.0465261 0.04663 
0.0467338 0.0468377 0.0469415 0.0470454 0.0471492 0.0472531 0.0473569 0.0474608 0.0475646 
0.0476685 0.0477724 0.0478762 0.0479801 0.0480839 0.0481878 0.0482916 0.0483955 0.0484993 
0.0486032 0.048707 0.0488109 0.0489147 0.0490186 0.0491224 0.0492263 0.0493301 0.049434 
0.0495379 0.0496417 0.0497456 0.0498494 0.0499533 0.0500571 0.050161 0.0502648 0.0503687 
0.0504725 0.0505764 0.0506802 0.0507841 0.0508879 0.0509918 0.0510956 0.0511995 0.0513034 
0.0514072 0.0515111 0.0516149 0.0517188 0.0518226 0.0519265 0.0520303 0.0521342 0.052238 
0.0523419 0.0524457 0.0525496 0.0526534 0.0527573 0.0528612 0.052965 0.0530689 0.0531727 
0.0532766 0.0533804 0.0534843 0.0535881 0.053692 0.0537958 0.0538997 0.0540035 0.0541074 
0.0542112 0.0543151 0.0544189 0.0545228 0.0546266 0.0547305 0.0548344 0.0549382 0.0550421 
0.0551459 0.0552498 0.0553536 0.0554575 0.0555613 0.0556652 0.055769 0.0558729 0.0559767 
0.0560806 0.0561844 0.0562883 0.0563921 0.056496 0.0565999 0.0567037 0.0568076 0.0569114 
0.0570153 0.0571191 0.057223 0.0573268 0.0574307 0.0575345 0.0576384 0.0577422 0.0578461 
0.0579499 0.0580538 0.0581576 0.0582615 0.0583654 0.0584692 0.0585731 0.0586769 0.0587808 
0.0588846 0.0589885 0.0590923 0.0591962 0.0593 0.0594039 0.0595077 0.0596116 0.0597154 
0.0598193 0.0599231 0.060027 0.0601309 0.0602347 0.0603386 0.0604424 0.0605463 0.0606501 
0.060754 0.0608578 0.0609617 0.0610655 0.0611694 0.0612732 0.0613771 0.0614809 0.0615848 
0.0616887 0.0617925 0.0618964 0.0620002 0.0621041 0.0622079 0.0623118 0.0624156 0.0625195 
0.0626233 0.0627272 0.062831 0.0629349 0.0630387 0.0631426 0.0632464 0.0633503 0.0634542 
0.063558 0.0636619 0.0637657 0.0638696 0.0639734 0.0640773 0.0641811 0.064285 0.0643888 
0.0644927 0.0645965 0.0647004 0.0648042 0.0649081 0.0650119 0.0651158 0.0652196 0.0653235 
0.0654274 0.0655312 0.0656351 0.0657389 0.0658428 0.0659466 0.0660505 0.0661543 0.0662582 
0.066362 0.0664659 0.0665697 0.0666736 0.0667774 0.0668813 0.0669852 0.067089 0.0671929 
0.0672967 0.0674006 0.0675044 0.0676083 0.0677121 0.067816 0.0679198 0.0680237 0.0681275 
0.0682314 0.0683352 0.0684391 0.0685429 0.0686468 0.0687506 0.0688545 0.0689584 0.0690622 
0.0691661 0.0692699 0.0693738 0.0694776 0.0695815 0.0696853 0.0697892 0.069893 0.0699969 
0.0701007 0.0702046 0.0703084 0.0704123 0.0705161 0.07062 0.0707239 0.0708277 0.0709316 
0.0710354 0.0711393 0.0712431 0.071347 0.0714508 0.0715547 0.0716585 0.0717624 0.0718662 
0.0719701 0.0720739 0.0721778 0.0722817 0.0723855 0.0724894 0.0725932 0.0726971 0.0728009 
0.0729048 0.0730086 0.0731125 0.0732163 0.0733202 0.073424 0.0735279 0.0736317 0.0737356 
0.0738394 0.0739433 0.0740471 0.074151 0.0742549 0.0743587 0.0744626 0.0745664 0.0746703 
0.0747741 0.074878 0.0749818 0.0750857 0.0751895 0.0752934 0.0753972 0.0755011 0.0756049 
0.0757088 0.0758127 0.0759165 0.0760204 0.0761242 0.0762281 0.0763319 0.0764358 0.0765396 
0.0766435 0.0767473 0.0768512 0.076955 0.0770589 0.0771627 0.0772666 0.0773704 0.0774743 
0.0775781 0.077682 0.0777859 0.0778897 0.0779936 0.0780974 0.0782013 0.0783051 0.078409 
0.0785128 0.0786167 0.0787205 0.0788244 0.0789282 0.0790321 0.0791359 0.0792398 0.0793436 
0.0794475 0.0795514 0.0796552 0.0797591 0.0798629 0.0799668 0.0800706 0.0801745 0.0802783 
0.0803822 0.080486 0.0805899 0.0806937 0.0807976 0.0809014 0.0810053 0.0811092 0.081213 
0.0813169 0.0814207 0.0815246 0.0816284 0.0817323 0.0818361 0.08194 0.0820438 0.0821477 
0.0822515 0.0823554 0.0824592 0.0825631 0.0826669 0.0827708 0.0828746 0.0829785 0.0830824 
0.0831862 0.0832901 0.0833939 0.0834978 0.0836016 0.0837055 0.0838093 0.0839132 0.084017 
0.0841209 0.0842247 0.0843286 0.0844324 0.0845363 0.0846402 0.084744 0.0848479 0.0849517 
0.0850556 0.0851594 0.0852633 0.0853671 0.085471 0.0855748 0.0856787 0.0857825 0.0858864 
0.0859902 0.0860941 0.0861979 0.0863018 0.0864056 0.0865095 0.0866134 0.0867172 0.0868211 
0.0869249 0.0870288 0.0871326 0.0872365 0.0873403 0.0874442 0.087548 0.0876519 0.0877557 
0.0878596 0.0879634 0.0880673 0.0881711 0.088275 0.0883789 0.0884827 0.0885866 0.0886904 
0.0887943 0.0888981 0.089002 0.0891058 0.0892097 0.0893135 0.0894174 0.0895212 0.0896251 
0.0897289 0.0898328 0.0899367 0.0900405 0.0901444 0.0902482 0.0903521 0.0904559 0.0905598 
0.0906636 0.0907675 0.0908713 0.0909752 0.091079 0.0911829 0.0912867 0.0913906 0.0914944 
0.0915983 0.0917021 0.091806 0.0919099 0.0920137 0.0921176 0.0922214 0.0923253 0.0924291 
0.092533 0.0926368 0.0927407 0.0928445 0.0929484 0.0930522 0.0931561 0.0932599 0.0933638 
0.0934677 0.0935715 0.0936754 0.0937792 0.0938831 0.0939869 0.0940908 0.0941946 0.0942985 
0.0944023 0.0945062 0.09461 0.0947139 0.0948177 0.0949216 0.0950254 0.0951293 0.0952331 
0.095337 0.0954409 0.0955447 0.0956486 0.0957524 0.0958563 0.0959601 0.096064 0.0961678 
0.0962717 0.0963755 0.0964794 0.0965832 0.0966871 0.0967909 0.0968948 0.0969986 0.0971025 
0.0972064 0.0973102 0.0974141 0.0975179 0.0976218 0.0977256 0.0978295 0.0979333 0.0980372 
0.098141 0.0982449 0.0983487 0.0984526 0.0985564 0.0986603 0.0987642 0.098868 0.0989719 
0.0990757 0.0991796 0.0992834 0.0993873 0.0994911 0.099595 0.0996988 0.0998027 0.0999065 
0.10001 0.100114 0.100218 0.100322 0.100426 0.10053 0.100634 0.100737 0.100841 
0.100945 0.101049 0.101153 0.101257 0.10136 0.101464 0.101568 0.101672 0.101776 
0.10188 0.101984 0.102087 0.102191 0.102295 0.102399 0.102503 0.102607 0.102711 
0.102814 0.102918 0.103022 0.103126 0.10323 0.103334 0.103438 0.103541 0.103645 
0.103749 0.103853 0.103957 0.104061 0.104165 0.104268 0.104372 0.104476 0.10458 
0.104684 0.104788 0.104891 0.104995 0.105099 0.105203 0.105307 0.105411 0.105515 
0.105618 0.105722 0.105826 0.10593 0.106034 0.106138 0.106242 0.106345 0.106449 
0.106553 0.106657 0.106761 0.106865 0.106969 0.107072 0.107176 0.10728 0.107384 
0.107488 0.107592 0.107696 0.107799 0.107903 0.108007 0.108111 0.108215 0.108319 
0.108422 0.108526 0.10863 0.108734 0.108838 0.108942 0.109046 0.109149 0.109253 
0.109357 0.109461 0.109565 0.109669 0.109773 0.109876 0.10998 0.110084 0.110188 
0.110292 0.110396 0.1105 0.110603 0.110707 0.110811 0.110915 0.111019 0.111123 
0.111227 0.11133 0.111434 0.111538 0.111642 0.111746 0.11185 0.111953 0.112057 
0.112161 0.112265 0.112369 0.112473 0.112577 0.11268 0.112784 0.112888 0.112992 
0.113096 0.1132 0.113304 0.113407 0.113511 0.113615 0.113719 0.113823 0.113927 
0.114031 0.114134 0.114238 0.114342 0.114446 0.11455 0.114654 0.114758 0.114861 
0.114965 0.115069 0.115173 0.115277 0.115381 0.115484 0.115588 0.115692 0.115796 
0.1159 0.116004 0.116108 0.116211 0.116315 0.116419 0.116523 0.116627 0.116731 
0.116835 0.116938 0.117042 0.117146 0.11725 0.117354 0.117458 0.117562 0.117665 
0.117769 0.117873 0.117977 0.118081 0.118185 0.118289 0.118392 0.118496 0.1186 
0.118704 0.118808 0.118912 0.119015 0.119119 0.119223 0.119327 0.119431 0.119535 
0.119639 0.119742 0.119846 0.11995 0.120054 0.120158 0.120262 0.120366 0.120469 
0.120573 0.120677 0.120781 0.120885 0.120989 0.121093 0.121196 0.1213 0.121404 
0.121508 0.121612 0.121716 0.12182 0.121923 0.122027 0.122131 0.122235 0.122339 
0.122443 0.122546 0.12265 0.122754 0.122858 0.122962 0.123066 0.12317 0.123273 
0.123377 0.123481 0.123585 0.123689 0.123793 0.123897 0.124 0.124104 0.124208 
0.124312 0.124416 0.12452 0.124624 0.124727 0.124831 0.124935 0.125039 0.125143 
0.125247 0.125351 0.125454 0.125558 0.125662 0.125766 0.12587 0.125974 0.126077 
0.126181 0.126285 0.126389 0.126493 0.126597 0.126701 0.126804 0.126908 0.127012 
0.127116 0.12722 0.127324 0.127428 0.127531 0.127635 0.127739 0.127843 0.127947 
0.128051 0.128155 0.128258 0.128362 0.128466 0.12857 0.128674 0.128778 0.128881 
0.128985 0.129089 0.129193 0.129297 0.129401 0.129505 0.129608 0.129712 0.129816 
0.12992 0.130024 0.130128 0.130232 0.130335 0.130439 0.130543 0.130647 0.130751 
0.130855 0.130959 0.131062 0.131166 0.13127 0.131374 0.131478 0.131582 0.131686 
0.131789 0.131893 0.131997 0.132101 0.132205 0.132309 0.132413 0.132516 0.13262 
0.132724 0.132828 0.132932 0.133036 0.133139 0.133243 0.133347 0.133451 0.133555 
0.133659 0.133763 0.133866 0.13397 0.134074 0.134178 0.134282 0.134386 0.13449 
0.134593 0.134697 0.134801 0.134905 0.135009 0.135113 0.135217 0.13532 0.135424 
0.135528 0.135632 0.135736 0.13584 0.135944 0.136047 0.136151 0.136255 0.136359 
0.136463 0.136567 0.13667 0.136774 0.136878 0.136982 0.137086 0.13719 0.137294 
0.137397 0.137501 0.137605 0.137709 0.137813 0.137917 0.138021 0.138124 0.138228 
0.138332 0.138436 0.13854 0.138644 0.138748 0.138851 0.138955 0.139059 0.139163 
0.139267 0.139371 0.139475 0.139578 0.139682 0.139786 0.13989 0.139994 0.140098 
0.140201 0.140305 0.140409 0.140513 0.140617 0.140721 0.140825 0.140928 0.141032 
0.141136 0.14124 0.141344 0.141448 0.141552 0.141655 0.141759 0.141863 0.141967 
0.142071 0.142175 0.142279 0.142382 0.142486 0.14259 0.142694 0.142798 0.142902 
0.143006 0.143109 0.143213 0.143317 0.143421 0.143525 0.143629 0.143732 0.143836 
0.14394 0.144044 0.144148 0.144252 0.144356 0.144459 0.144563 0.144667 0.144771 
0.144875 0.144979 0.145083 0.145186 0.14529 0.145394 0.145498 0.145602 0.145706 
0.14581 0.145913 0.146017 0.146121 0.146225 0.146329 0.146433 0.146536 0.14664 
0.146744 0.146848 0.146952 0.147056 0.14716 0.147263 0.147367 0.147471 0.147575 
0.147679 0.147783 0.147887 0.14799 0.148094 0.148198 0.148302 0.148406 0.14851 
0.148614 0.148717 0.148821 0.148925 0.149029 0.149133 0.149237 0.149341 0.149444 
0.149548 0.149652 0.149756 0.14986 0.149964 0.150068 0.150171 0.150275 0.150379 
0.150483 0.150587 0.150691 0.150794 0.150898 0.151002 0.151106 0.15121 0.151314 
0.151418 0.151521 0.151625 0.151729 0.151833 0.151937 0.152041 0.152145 0.152248 
0.152352 0.152456 0.15256 0.152664 0.152768 0.152872 0.152975 0.153079 0.153183 
0.153287 0.153391 0.153495 0.153599 0.153702 0.153806 0.15391 0.154014 0.154118 
0.154222 0.154325 0.154429 0.154533 0.154637 0.154741 0.154845 0.154949 0.155052 
0.155156 0.15526 0.155364 0.155468 0.155572 0.155676 0.155779 0.155883 0.155987 
0.156091 0.156195 0.156299 0.156403 0.156506 0.15661 0.156714 0.156818 0.156922 
0.157026 0.15713 0.157233 0.157337 0.157441 0.157545 0.157649 0.157753 0.157856 
0.15796 0.158064 0.158168 0.158272 0.158376 0.15848 0.158583 0.158687 0.158791 
0.158895 0.158999 0.159103 0.159207 0.15931 0.159414 0.159518 0.159622 0.159726 
0.15983 0.159934 0.160037 0.160141 0.160245 0.160349 0.160453 0.160557 0.160661 
0.160764 0.160868 0.160972 0.161076 0.16118 0.161284 0.161387 0.161491 0.161595 
0.161699 0.161803 0.161907 0.162011 0.162114 0.162218 0.162322 0.162426 0.16253 
0.162634 0.162738 0.162841 0.162945 0.163049 0.163153 0.163257 0.163361 0.163465 
0.163568 0.163672 0.163776 0.16388 0.163984 0.164088 0.164191 0.164295 0.164399 
0.164503 0.164607 0.164711 0.164815 0.164918 0.165022 0.165126 0.16523 0.165334 
0.165438 0.165542 0.165645 0.165749 0.165853 0.165957 0.166061 0.166165 0.166269 
0.166372 0.166476 0.16658 0.166684 0.166788 0.166892 0.166996 0.167099 0.167203 
0.167307 0.167411 0.167515 0.167619 0.167723 0.167826 0.16793 0.168034 0.168138 
0.168242 0.168346 0.168449 0.168553 0.168657 0.168761 0.168865 0.168969 0.169073 
0.169176 0.16928 0.169384 0.169488 0.169592 0.169696 0.1698 0.169903 0.170007 
0.170111 0.170215 0.170319 0.170423 0.170527 0.17063 0.170734 0.170838 0.170942 
0.171046 0.17115 0.171254 0.171357 0.171461 0.171565 0.171669 0.171773 0.171877 
0.17198 0.172084 0.172188 0.172292 0.172396 0.1725 0.172604 0.172707 0.172811 
0.172915 0.173019 0.173123 0.173227 0.173331 0.173434 0.173538 0.173642 0.173746 
0.17385 0.173954 0.174058 0.174161 0.174265 0.174369 0.174473 0.174577 0.174681 
0.174785 0.174888 0.174992 0.175096 0.1752 0.175304 0.175408 0.175511 0.175615 
0.175719 0.175823 0.175927 0.176031 0.176135 0.176238 0.176342 0.176446 0.17655 
0.176654 0.176758 0.176862 0.176965 0.177069 0.177173 0.177277 0.177381 0.177485 
0.177589 0.177692 0.177796 0.1779 0.178004 0.178108 0.178212 0.178316 0.178419 
0.178523 0.178627 0.178731 0.178835 0.178939 0.179042 0.179146 0.17925 0.179354 
0.179458 0.179562 0.179666 0.179769 0.179873 0.179977 0.180081 0.180185 0.180289 
0.180393 0.180496 0.1806 0.180704 0.180808 0.180912 0.181016 0.18112 0.181223 
0.181327 0.181431 0.181535 0.181639 0.181743 0.181846 0.18195 0.182054 0.182158 
0.182262 0.182366 0.18247 0.182573 0.182677 0.182781 0.182885 0.182989 0.183093 
0.183197 0.1833 0.183404 0.183508 0.183612 0.183716 0.18382 0.183924 0.184027 
0.184131 0.184235 0.184339 0.184443 0.184547 0.184651 0.184754 0.184858 0.184962 
0.185066 0.18517 0.185274 0.185378 0.185481 0.185585 0.185689 0.185793 0.185897 
0.186001 0.186104 0.186208 0.186312 0.186416 0.18652 0.186624 0.186728 0.186831 
0.186935 0.187039 0.187143 0.187247 0.187351 0.187455 0.187558 0.187662 0.187766 
0.18787 0.187974 0.188078 0.188182 0.188285 0.188389 0.188493 0.188597 0.188701 
0.188805 0.188909 0.189012 0.189116 0.18922 0.189324 0.189428 0.189532 0.189635 
0.189739 0.189843 0.189947 0.190051 0.190155 0.190259 0.190362 0.190466 0.19057 
0.190674 0.190778 0.190882 0.190986 0.191089 0.191193 0.191297 0.191401 0.191505 
0.191609 0.191713 0.191816 0.19192 0.192024 0.192128 0.192232 0.192336 0.19244 
0.192543 0.192647 0.192751 0.192855 0.192959 0.193063 0.193166 0.19327 0.193374 
0.193478 0.193582 0.193686 0.19379 0.193893 0.193997 0.194101 0.194205 0.194309 
0.194413 0.194517 0.19462 0.194724 0.194828 0.194932 0.195036 0.19514 0.195244 
0.195347 0.195451 0.195555 0.195659 0.195763 0.195867 0.195971 0.196074 0.196178 
0.196282 0.196386 0.19649 0.196594 0.196697 0.196801 0.196905 0.197009 0.197113 
0.197217 0.197321 0.197424 0.197528 0.197632 0.197736 0.19784 0.197944 0.198048 
0.198151 0.198255 0.198359 0.198463 0.198567 0.198671 0.198775 0.198878 0.198982 
0.199086 0.19919 0.199294 0.199398 0.199501 0.199605 0.199709 0.199813 0.199917 
0.200021 0.200125 0.200228 0.200332 0.200436 0.20054 0.200644 0.200748 0.200852 
0.200955 0.201059 0.201163 0.201267 0.201371 0.201475 0.201579 0.201682 0.201786 
0.20189 0.201994 0.202098 0.202202 0.202306 0.202409 0.202513 0.202617 0.202721 
0.202825 0.202929 0.203033 0.203136 0.20324 0.203344 0.203448 0.203552 0.203656 
0.203759 0.203863 0.203967 0.204071 0.204175 0.204279 0.204383 0.204486 0.20459 
0.204694 0.204798 0.204902 0.205006 0.20511 0.205213 0.205317 0.205421 0.205525 
0.205629 0.205733 0.205837 0.20594 0.206044 0.206148 0.206252 0.206356 0.20646 
0.206564 0.206667 0.206771 0.206875 0.206979 0.207083 0.207187 0.20729 0.207394 
0.207498 0.207602 0.207706 0.20781 0.207914 0.208017 0.208121 0.208225 0.208329 
0.208433 0.208537 0.208641 0.208744 0.208848 0.208952 0.209056 0.20916 0.209264 
0.209368 0.209471 0.209575 0.209679 0.209783 0.209887 0.209991 0.210095 0.210198 
0.210302 0.210406 0.21051 0.210614 0.210718 0.210821 0.210925 0.211029 0.211133 
0.211237 0.211341 0.211445 0.211548 0.211652 0.211756 0.21186 0.211964 0.212068 
0.212172 0.212275 0.212379 0.212483 0.212587 0.212691 0.212795 0.212899 0.213002 
0.213106 0.21321 0.213314 0.213418 0.213522 0.213626 0.213729 0.213833 0.213937 
0.214041 0.214145 0.214249 0.214352 0.214456 0.21456 0.214664 0.214768 0.214872 
0.214976 0.215079 0.215183 0.215287 0.215391 0.215495 0.215599 0.215703 0.215806 
0.21591 0.216014 0.216118 0.216222 0.216326 0.21643 0.216533 0.216637 0.216741 