# vtk DataFile Version 2.0
grid description
ASCII
DATASET UNSTRUCTURED_GRID

POINTS 4844 double
388.159803 178.693449 0.000000
389.528250 176.637796 0.000000
391.582479 179.753164 0.000000
84.595729 322.517735 1.000000
49.875828 338.274849 1.000000
49.356288 272.137632 1.000000
312.269890 503.977926 1.000000
311.000000 500.000000 0.733333
314.453310 501.719983 1.000000
208.000000 330.000000 0.333333
213.162600 336.089143 0.000000
202.740363 335.089884 0.000000
185.500000 599.000000 1.000000
127.000000 599.000000 1.000000
144.109774 557.928865 1.000000
566.876165 167.585186 1.000000
558.495611 177.495611 1.000000
557.991112 158.124424 1.000000
444.903290 390.906839 1.000000
448.241032 387.758968 1.000000
449.381097 391.906269 1.000000
271.182912 574.318902 1.000000
244.000000 599.000000 1.000000
243.839712 561.369499 1.000000
543.751838 126.818079 0.000000
541.478365 124.358173 0.000000
545.000000 123.000000 0.800000
365.157049 217.349735 0.000000
370.853789 210.935612 0.000000
371.434696 221.042468 0.000000
507.791397 544.527728 1.000000
478.000000 599.000000 1.000000
463.375000 564.821465 1.000000
354.091689 572.685330 1.000000
361.000000 599.000000 1.000000
331.750000 599.000000 1.000000
372.876907 29.800182 1.000000
361.763949 50.039013 1.000000
361.000000 10.000000 1.000000
348.140674 384.784405 1.000000
348.154869 377.521491 1.000000
353.493571 381.777342 1.000000
289.683393 446.357454 0.000000
287.812500 445.250000 0.000000
290.130702 443.467748 0.000000
164.260773 174.830276 1.000000
162.183809 173.357037 1.000000
164.566403 172.198735 1.000000
388.520596 453.904689 0.000000
393.525081 451.874593 0.000000
393.886398 455.470997 0.000000
183.466547 243.206093 0.000000
183.416991 240.016407 0.000000
185.565111 241.578261 0.000000
51.685086 523.324191 1.000000
95.395836 515.753062 1.000000
90.364554 545.046308 1.000000
503.455815 508.750185 1.000000
477.501432 524.999599 1.000000
485.490511 483.952579 1.000000
419.607143 459.821429 1.000000
416.000000 458.500000 0.400000
420.000000 456.000000 0.533333
121.546574 170.386643 1.000000
125.292792 163.515291 1.000000
129.000000 168.000000 0.533333
478.488279 65.551602 1.000000
483.621979 85.573646 1.000000
465.450596 80.570215 1.000000
398.027053 163.081158 0.000000
395.000000 159.000000 0.933333
398.000000 158.000000 0.400000
545.860322 110.040513 1.000000
551.440725 113.182382 1.000000
545.300000 115.000000 1.000000
488.223269 375.359065 1.000000
471.173085 379.633195 1.000000
475.395605 363.514105 1.000000
337.174306 463.424306 0.533333
337.500000 463.500000 0.533333
337.250000 463.750000 0.533333
374.232076 186.089246 1.000000
376.364089 183.543454 1.000000
377.500000 185.500000 0.733333
177.314634 198.584070 0.000000
175.037924 197.044942 0.000000
178.250000 196.000000 0.600000
157.115026 170.361562 1.000000
157.788437 171.211563 1.000000
156.870208 171.308751 0.933333
166.684118 402.978689 0.000000
166.360146 401.428531 0.000000
167.618468 401.974483 0.000000
396.235797 394.318189 1.000000
397.084377 393.462507 1.000000
397.000000 395.250000 0.733333
274.250000 415.250000 0.333333
276.000000 419.000000 0.266667
271.444742 418.842454 1.000000
369.933693 309.254757 1.000000
372.154340 308.266457 1.000000
371.658608 310.967263 1.000000
319.000000 288.000000 0.533333
317.000000 288.000000 0.933333
318.000000 285.000000 1.000000
276.542530 318.835941 1.000000
273.538766 316.107777 1.000000
277.528573 313.613719 1.000000
153.067450 223.320710 1.000000
158.092012 226.604689 1.000000
152.564203 229.576524 1.000000
284.585195 305.438810 1.000000
290.115385 312.961538 1.000000
282.643547 311.552136 1.000000
207.900865 393.530312 0.000000
206.995377 393.879206 0.000000
206.865754 392.758413 0.000000
167.256425 206.143199 0.000000
161.914133 205.405555 0.000000
164.685689 200.867306 0.000000
175.000000 407.500000 0.200000
173.000000 407.000000 0.333333
173.493595 405.508584 0.000000
123.564904 322.810305 1.000000
126.709998 343.083200 1.000000
103.978472 336.229312 1.000000
152.525809 411.950925 1.000000
145.321191 416.361298 1.000000
149.035785 404.232108 1.000000
233.688876 429.974892 1.000000
222.710152 431.561654 1.000000
227.260657 421.039773 1.000000
344.316384 304.996335 0.000000
347.573979 309.690947 0.000000
338.876948 312.315656 0.000000
389.612798 284.267060 1.000000
383.842885 291.868846 1.000000
380.303911 286.370315 1.000000
364.877034 202.489300 1.000000
363.718415 202.216836 1.000000
364.686680 201.524667 1.000000
524.930830 134.969312 0.000000
531.717255 139.742185 0.000000
524.367803 143.367803 0.000000
539.125000 120.750000 0.800000
540.000000 121.000000 0.666667
540.000000 122.000000 0.266667
353.516636 234.445284 0.000000
359.737928 232.651227 0.000000
355.639837 239.507419 0.000000
437.185052 122.283861 1.000000
437.750000 129.000000 0.733333
430.675360 127.755452 1.000000
601.065050 157.736226 1.000000
582.136962 147.363861 1.000000
587.723813 124.433120 1.000000
513.370082 88.667476 1.000000
506.483911 104.222532 1.000000
503.382898 85.883501 1.000000
357.038160 223.212721 0.000000
362.084930 226.367542 0.000000
356.006626 226.858584 0.000000
427.808888 56.247827 1.000000
414.596015 69.595938 1.000000
403.312804 45.213487 1.000000
333.121065 287.755935 0.000000
341.654336 285.343507 0.000000
340.396196 295.918614 0.000000
371.000000 292.000000 0.400000
366.375217 293.931442 0.000000
363.459581 287.525832 0.000000
293.776261 222.874537 1.000000
266.768635 236.286447 1.000000
267.503114 212.930534 1.000000
232.329020 253.975733 1.000000
231.862653 257.455339 1.000000
226.500000 255.500000 0.933333
446.340724 439.182355 1.000000
440.000000 434.000000 0.533333
446.390182 432.595792 1.000000
425.605699 457.804275 1.000000
422.428571 457.214286 1.000000
424.000000 455.000000 0.866667
479.812406 445.216624 1.000000
469.676421 433.254180 1.000000
482.491586 426.565924 1.000000
347.863910 467.647808 1.000000
345.548491 466.082259 1.000000
348.668462 463.176777 1.000000
366.500000 300.250000 0.333333
364.497621 297.373702 0.000000
368.000000 297.500000 0.333333
209.169799 251.989214 0.000000
205.250000 253.250000 0.000000
204.020764 246.807527 0.000000
155.097936 177.965371 0.000000
157.950278 179.413797 0.000000
155.646507 182.475128 0.000000
182.241750 160.529074 1.000000
191.874898 157.671316 1.000000
189.160160 166.185219 1.000000
145.229734 173.335069 0.000000
142.985073 170.311252 0.000000
145.963391 169.470673 0.000000
138.848817 477.721113 1.000000
182.199998 486.234679 1.000000
139.410858 513.685191 1.000000
337.390090 462.640090 0.600000
337.648656 462.898656 0.600000
337.243875 463.044871 0.533333
292.271287 406.380613 0.000000
289.572691 419.397282 0.000000
285.267326 413.881353 0.000000
249.949922 343.293822 0.000000
249.000000 357.000000 0.600000
245.000000 349.000000 0.600000
280.306506 485.906369 0.000000
283.675559 485.175138 0.000000
284.693548 489.887097 0.000000
255.327338 533.932264 1.000000
244.278246 522.221754 1.000000
262.358253 511.141747 1.000000
342.260550 457.714353 1.000000
342.417056 459.400935 1.000000
340.567286 457.670640 1.000000
428.803366 459.309562 1.000000
431.750938 461.262688 1.000000
428.584990 464.815534 1.000000
429.364452 438.656159 0.000000
426.866757 442.089009 0.000000
422.967711 439.011685 0.000000
397.165095 447.941837 0.000000
388.296192 446.168056 0.000000
437.453884 368.189546 1.000000
447.544196 373.838126 1.000000
439.841889 379.504062 1.000000
417.399496 454.389660 0.000000
414.412315 455.666001 0.000000
392.310863 459.922768 0.066667
393.000000 461.000000 0.400000
391.875000 461.125000 0.533333
389.948248 427.014390 0.000000
382.921741 420.299938 0.000000
390.711121 417.325546 0.000000
363.611905 204.642113 0.933333
362.271224 204.616946 1.000000
363.276861 203.729955 1.000000
167.311284 180.688716 1.000000
166.000000 183.000000 0.466667
165.000000 182.000000 0.333333
351.245140 326.044850 0.066667
351.433995 322.984629 0.000000
353.250000 326.000000 0.400000
235.000000 269.000000 0.600000
236.000000 270.000000 0.666667
234.500000 270.500000 0.200000
205.665907 231.280219 0.133333
205.710230 232.825818 0.066667
204.856771 231.536458 0.000000
251.012157 184.128863 1.000000
247.209309 197.020053 1.000000
237.824882 186.725056 1.000000
192.500000 261.500000 0.666667
192.000000 263.000000 1.000000
190.750000 261.750000 1.000000
176.602363 182.897637 1.000000
172.914346 175.085654 1.000000
178.315357 173.055479 1.000000
196.890248 250.360392 0.000000
197.754525 245.674065 0.000000
192.902133 210.476414 0.933333
192.000000 213.000000 0.466667
190.500000 211.125000 0.333333
172.640076 404.189696 0.000000
175.319804 403.391130 0.000000
253.605350 472.097271 1.000000
250.861606 484.393601 1.000000
237.475067 465.528123 1.000000
196.377271 272.192678 1.000000
196.224639 270.505837 1.000000
197.875000 270.125000 1.000000
164.989399 251.176257 1.000000
156.730739 246.192315 1.000000
161.525540 243.099550 1.000000
158.527599 454.775945 1.000000
178.000000 447.088870 1.000000
185.256806 466.108495 1.000000
168.786415 401.221463 0.000000
169.128061 403.239972 0.000000
178.505364 351.086798 0.066667
177.500000 349.000000 0.600000
179.526786 349.007813 0.133333
125.585835 410.980502 1.000000
121.657816 398.563115 1.000000
138.523896 409.488052 1.000000
226.404787 369.417154 0.000000
229.000000 371.000000 0.200000
226.875381 373.055246 0.000000
233.037813 318.240042 0.000000
235.847433 320.636814 0.000000
231.500000 322.500000 0.600000
219.255906 388.755906 1.000000
216.188714 390.938714 0.933333
215.500000 388.500000 0.200000
169.714282 371.396823 0.000000
175.038937 365.252051 0.000000
178.593122 373.129605 0.000000
178.000000 405.389561 0.000000
178.000000 402.594138 0.000000
181.173256 403.991849 0.000000
223.051656 410.869096 1.000000
233.341677 411.864832 1.000000
343.860479 234.005064 1.000000
345.701659 232.194580 1.000000
346.750000 233.500000 0.866667
365.556614 204.543684 0.533333
365.000000 205.000000 0.400000
364.875000 204.312500 0.866667
545.000000 138.000000 0.400000
539.625000 130.375000 0.000000
[...]
CELL_DATA 9630
SCALARS scalars float 1
LOOKUP_TABLE lut
0.0000000000
0.0001038529
0.0002077059
0.0003115588
0.0004154118
0.0005192647
0.0006231177
0.0007269706
0.0008308236
0.0009346765
0.0010385294
0.0011423824
0.0012462353
0.0013500883
0.0014539412
0.0015577942
0.0016616471
0.0017655001
0.0018693530
0.0019732059
0.0020770589
0.0021809118
0.0022847648
0.0023886177
0.0024924707
0.0025963236
0.0027001766
0.0028040295
0.0029078824
0.0030117354
0.0031155883
0.0032194413
0.0033232942
0.0034271472
0.0035310001
0.0036348530
0.0037387060
0.0038425589
0.0039464119
0.0040502648
0.0041541178
0.0042579707
0.0043618237
0.0044656766
0.0045695295
0.0046733825
0.0047772354
0.0048810884
0.0049849413
0.0050887943
0.0051926472
0.0052965002
0.0054003531
0.0055042060
0.0056080590
0.0057119119
0.0058157649
0.0059196178
0.0060234708
0.0061273237
0.0062311767
0.0063350296
0.0064388825
0.0065427355
0.0066465884
0.0067504414
0.0068542943
0.0069581473
0.0070620002
0.0071658532
0.0072697061
0.0073735590
0.0074774120
0.0075812649
0.0076851179
0.0077889708
0.0078928238
0.0079966767
0.0081005297
0.0082043826
0.0083082355
0.0084120885
0.0085159414
0.0086197944
0.0087236473
0.0088275003
0.0089313532
0.0090352061
0.0091390591
0.0092429120
0.0093467650
0.0094506179
0.0095544709
0.0096583238
0.0097621768
0.0098660297
0.0099698826
0.0100737356
0.0101775885
0.0102814415
0.0103852944
0.0104891474
0.0105930003
0.0106968533
0.0108007062
0.0109045591
0.0110084121
0.0111122650
0.0112161180
0.0113199709
0.0114238239
0.0115276768
0.0116315298
0.0117353827
0.0118392356
0.0119430886
0.0120469415
0.0121507945
0.0122546474
0.0123585004
0.0124623533
0.0125662063
0.0126700592
0.0127739121
0.0128777651
0.0129816180
0.0130854710
0.0131893239
0.0132931769
0.0133970298
0.0135008828
0.0136047357
0.0137085886
0.0138124416
0.0139162945
0.0140201475
0.0141240004
0.0142278534
0.0143317063
0.0144355592
0.0145394122
0.0146432651
0.0147471181
0.0148509710
0.0149548240
0.0150586769
0.0151625299
0.0152663828
0.0153702357
0.0154740887
0.0155779416
0.0156817946
0.0157856475
0.0158895005
0.0159933534
0.0160972064
0.0162010593
0.0163049122
0.0164087652
0.0165126181
0.0166164711
0.0167203240
0.0168241770
0.0169280299
0.0170318829
0.0171357358
0.0172395887
0.0173434417
0.0174472946
0.0175511476
0.0176550005
0.0177588535
0.0178627064
0.0179665594
0.0180704123
0.0181742652
0.0182781182
0.0183819711
0.0184858241
0.0185896770
0.0186935300
0.0187973829
0.0189012359
0.0190050888
0.0191089417
0.0192127947
0.0193166476
0.0194205006
0.0195243535
0.0196282065
0.0197320594
0.0198359123
0.0199397653
0.0200436182
0.0201474712
0.0202513241
0.0203551771
0.0204590300
0.0205628830
0.0206667359
0.0207705888
0.0208744418
0.0209782947
0.0210821477
0.0211860006
0.0212898536
0.0213937065
0.0214975595
0.0216014124
0.0217052653
0.0218091183
0.0219129712
0.0220168242
0.0221206771
0.0222245301
0.0223283830
0.0224322360
0.0225360889
0.0226399418
0.0227437948
0.0228476477
0.0229515007
0.0230553536
0.0231592066
0.0232630595
0.0233669125
0.0234707654
0.0235746183
0.0236784713
0.0237823242
0.0238861772
0.0239900301
0.0240938831
0.0241977360
0.0243015890
0.0244054419
0.0245092948
0.0246131478
0.0247170007
0.0248208537
0.0249247066
0.0250285596
0.0251324125
0.0252362654
0.0253401184
0.0254439713
0.0255478243
0.0256516772
0.0257555302
0.0258593831
0.0259632361
0.0260670890
0.0261709419
0.0262747949
0.0263786478
0.0264825008
0.0265863537
0.0266902067
0.0267940596
0.0268979126
0.0270017655
0.0271056184
0.0272094714
0.0273133243
0.0274171773
0.0275210302
0.0276248832
0.0277287361
0.0278325891
0.0279364420
0.0280402949
0.0281441479
0.0282480008
0.0283518538
0.0284557067
0.0285595597
0.0286634126
0.0287672656
0.0288711185
0.0289749714
0.0290788244
0.0291826773
0.0292865303
0.0293903832
0.0294942362
0.0295980891
0.0297019421
0.0298057950
0.0299096479
0.0300135009
0.0301173538
0.0302212068
0.0303250597
0.0304289127
0.0305327656
0.0306366185
0.0307404715
0.0308443244
0.0309481774
0.0310520303
0.0311558833
0.0312597362
0.0313635892
0.0314674421
0.0315712950
0.0316751480
0.0317790009
0.0318828539
0.0319867068
0.0320905598
0.0321944127
0.0322982657
0.0324021186
0.0325059715
0.0326098245
0.0327136774
0.0328175304
0.0329213833
0.0330252363
0.0331290892
0.0332329422
0.0333367951
0.0334406480
0.0335445010
0.0336483539
0.0337522069
0.0338560598
0.0339599128
0.0340637657
0.0341676187
0.0342714716
0.0343753245
0.0344791775
0.0345830304
0.0346868834
0.0347907363
0.0348945893
0.0349984422
0.0351022952
0.0352061481
0.0353100010
0.0354138540
0.0355177069
0.0356215599
0.0357254128
0.0358292658
0.0359331187
0.0360369716
0.0361408246
0.0362446775
0.0363485305
0.0364523834
0.0365562364
0.0366600893
0.0367639423
0.0368677952
0.0369716481
0.0370755011
0.0371793540
0.0372832070
0.0373870599
0.0374909129
0.0375947658
0.0376986188
0.0378024717
0.0379063246
0.0380101776
0.0381140305
0.0382178835
0.0383217364
0.0384255894
0.0385294423
0.0386332953
0.0387371482
0.0388410011
0.0389448541
0.0390487070
0.0391525600
0.0392564129
0.0393602659
0.0394641188
0.0395679718
0.0396718247
0.0397756776
0.0398795306
0.0399833835
0.0400872365
0.0401910894
0.0402949424
0.0403987953
0.0405026483
0.0406065012
0.0407103541
0.0408142071
0.0409180600
0.0410219130
0.0411257659
0.0412296189
0.0413334718
0.0414373247
0.0415411777
0.0416450306
0.0417488836
0.0418527365
0.0419565895
0.0420604424
0.0421642954
0.0422681483
0.0423720012
0.0424758542
0.0425797071
0.0426835601
0.0427874130
0.0428912660
0.0429951189
0.0430989719
0.0432028248
0.0433066777
0.0434105307
0.0435143836
0.0436182366
0.0437220895
0.0438259425
0.0439297954
0.0440336484
0.0441375013
0.0442413542
0.0443452072
0.0444490601
0.0445529131
0.0446567660
0.0447606190
0.0448644719
0.0449683249
0.0450721778
0.0451760307
0.0452798837
0.0453837366
0.0454875896
0.0455914425
0.0456952955
0.0457991484
0.0459030014
0.0460068543
0.0461107072
0.0462145602
0.0463184131
0.0464222661
0.0465261190
0.0466299720
0.0467338249
0.0468376778
0.0469415308
0.0470453837
0.0471492367
0.0472530896
0.0473569426
0.0474607955
0.0475646485
0.0476685014
0.0477723543
0.0478762073
0.0479800602
0.0480839132
0.0481877661
0.0482916191
0.0483954720
0.0484993250
0.0486031779
0.0487070308
0.0488108838
0.0489147367
0.0490185897
0.0491224426
0.0492262956
0.0493301485
0.0494340015
0.0495378544
0.0496417073
0.0497455603
0.0498494132
0.0499532662
0.0500571191
0.0501609721
0.0502648250
0.0503686780
0.0504725309
0.0505763838
0.0506802368
0.0507840897
0.0508879427
0.0509917956
0.0510956486
0.0511995015
0.0513033545
0.0514072074
0.0515110603
0.0516149133
0.0517187662
0.0518226192
0.0519264721
0.0520303251
0.0521341780
0.0522380309
0.0523418839
0.0524457368
0.0525495898
0.0526534427
0.0527572957
0.0528611486
0.0529650016
0.0530688545
0.0531727074
0.0532765604
0.0533804133
0.0534842663
0.0535881192
0.0536919722
0.0537958251
0.0538996781
0.0540035310
0.0541073839
0.0542112369
0.0543150898
0.0544189428
0.0545227957
0.0546266487
0.0547305016
0.0548343546
0.0549382075
0.0550420604
0.0551459134
0.0552497663
0.0553536193
0.0554574722
0.0555613252
0.0556651781
0.0557690311
0.0558728840
0.0559767369
0.0560805899
0.0561844428
0.0562882958
0.0563921487
0.0564960017
0.0565998546
0.0567037076
0.0568075605
0.0569114134
0.0570152664
0.0571191193
0.0572229723
0.0573268252
0.0574306782
0.0575345311
0.0576383840
0.0577422370
0.0578460899
0.0579499429
0.0580537958
0.0581576488
0.0582615017
0.0583653547
0.0584692076
0.0585730605
0.0586769135
0.0587807664
0.0588846194
0.0589884723
0.0590923253
0.0591961782
0.0593000312
0.0594038841
0.0595077370
0.0596115900
0.0597154429
0.0598192959
0.0599231488
0.0600270018
0.0601308547
0.0602347077
0.0603385606
0.0604424135
0.0605462665
0.0606501194
0.0607539724
0.0608578253
0.0609616783
0.0610655312
0.0611693842
0.0612732371
0.0613770900
0.0614809430
0.0615847959
0.0616886489
0.0617925018
0.0618963548
0.0620002077
0.0621040607
0.0622079136
0.0623117665
0.0624156195
0.0625194724
0.0626233254
0.0627271783
0.0628310313
0.0629348842
0.0630387371
0.0631425901
0.0632464430
0.0633502960
0.0634541489
0.0635580019
0.0636618548
0.0637657078
0.0638695607
0.0639734136
0.0640772666
0.0641811195
0.0642849725
0.0643888254
0.0644926784
0.0645965313
0.0647003843
0.0648042372
0.0649080901
0.0650119431
0.0651157960
0.0652196490
0.0653235019
0.0654273549
0.0655312078
0.0656350608
0.0657389137
0.0658427666
0.0659466196
0.0660504725
0.0661543255
0.0662581784
0.0663620314
0.0664658843
0.0665697373
0.0666735902
0.0667774431
0.0668812961
0.0669851490
0.0670890020
0.0671928549
0.0672967079
0.0674005608
0.0675044138
0.0676082667
0.0677121196
0.0678159726
0.0679198255
0.0680236785
0.0681275314
0.0682313844
0.0683352373
0.0684390902
0.0685429432
0.0686467961
0.0687506491
0.0688545020
0.0689583550
0.0690622079
0.0691660609
0.0692699138
0.0693737667
0.0694776197
0.0695814726
0.0696853256
0.0697891785
0.0698930315
0.0699968844
0.0701007374
0.0702045903
0.0703084432
0.0704122962
0.0705161491
0.0706200021
0.0707238550
0.0708277080
0.0709315609
0.0710354139
0.0711392668
0.0712431197
0.0713469727
0.0714508256
0.0715546786
0.0716585315
0.0717623845
0.0718662374
0.0719700904
0.0720739433
0.0721777962
0.0722816492
0.0723855021
0.0724893551
0.0725932080
0.0726970610
0.0728009139
0.0729047669
0.0730086198
0.0731124727
0.0732163257
0.0733201786
0.0734240316
0.0735278845
0.0736317375
0.0737355904
0.0738394433
0.0739432963
0.0740471492
0.0741510022
0.0742548551
0.0743587081
0.0744625610
0.0745664140
0.0746702669
0.0747741198
0.0748779728
0.0749818257
0.0750856787
0.0751895316
0.0752933846
0.0753972375
0.0755010905
0.0756049434
0.0757087963
0.0758126493
0.0759165022
0.0760203552
0.0761242081
0.0762280611
0.0763319140
0.0764357670
0.0765396199
0.0766434728
0.0767473258
0.0768511787
0.0769550317
0.0770588846
0.0771627376
0.0772665905
0.0773704435
0.0774742964
0.0775781493
0.0776820023
0.0777858552
0.0778897082
0.0779935611
0.0780974141
0.0782012670
0.0783051200
0.0784089729
0.0785128258
0.0786166788
0.0787205317
0.0788243847
0.0789282376
0.0790320906
0.0791359435
0.0792397964
0.0793436494
0.0794475023
0.0795513553
0.0796552082
0.0797590612
0.0798629141
0.0799667671
0.0800706200
0.0801744729
0.0802783259
0.0803821788
0.0804860318
0.0805898847
0.0806937377
0.0807975906
0.0809014436
0.0810052965
0.0811091494
0.0812130024
0.0813168553
0.0814207083
0.0815245612
0.0816284142
0.0817322671
0.0818361201
0.0819399730
0.0820438259
0.0821476789
0.0822515318
0.0823553848
0.0824592377
0.0825630907
0.0826669436
0.0827707966
0.0828746495
0.0829785024
0.0830823554
0.0831862083
0.0832900613
0.0833939142
0.0834977672
0.0836016201
0.0837054731
0.0838093260
0.0839131789
0.0840170319
0.0841208848
0.0842247378
0.0843285907
0.0844324437
0.0845362966
0.0846401495
0.0847440025
0.0848478554
0.0849517084
0.0850555613
0.0851594143
0.0852632672
0.0853671202
0.0854709731
0.0855748260
0.0856786790
0.0857825319
0.0858863849
0.0859902378
0.0860940908
0.0861979437
0.0863017967
0.0864056496
0.0865095025
0.0866133555
0.0867172084
0.0868210614
0.0869249143
0.0870287673
0.0871326202
0.0872364732
0.0873403261
0.0874441790
0.0875480320
0.0876518849
0.0877557379
0.0878595908
0.0879634438
0.0880672967
0.0881711497
0.0882750026
0.0883788555
0.0884827085
0.0885865614
0.0886904144
0.0887942673
0.0888981203
0.0890019732
0.0891058262
0.0892096791
0.0893135320
0.0894173850
0.0895212379
0.0896250909
0.0897289438
0.0898327968
0.0899366497
0.0900405026
0.0901443556
0.0902482085
0.0903520615
0.0904559144
0.0905597674
0.0906636203
0.0907674733
0.0908713262
0.0909751791
0.0910790321
0.0911828850
0.0912867380
0.0913905909
0.0914944439
0.0915982968
0.0917021498
0.0918060027
0.0919098556
0.0920137086
0.0921175615
0.0922214145
0.0923252674
0.0924291204
0.0925329733
0.0926368263
0.0927406792
0.0928445321
0.0929483851
0.0930522380
0.0931560910
0.0932599439
0.0933637969
0.0934676498
0.0935715028
0.0936753557
0.0937792086
0.0938830616
0.0939869145
0.0940907675
0.0941946204
0.0942984734
0.0944023263
0.0945061793
0.0946100322
0.0947138851
0.0948177381
0.0949215910
0.0950254440
0.0951292969
0.0952331499
0.0953370028
0.0954408557
0.0955447087
0.0956485616
0.0957524146
0.0958562675
0.0959601205
0.0960639734
0.0961678264
0.0962716793
0.0963755322
0.0964793852
0.0965832381
0.0966870911
0.0967909440
0.0968947970
0.0969986499
0.0971025029
0.0972063558
0.0973102087
0.0974140617
0.0975179146
0.0976217676
0.0977256205
0.0978294735
0.0979333264
0.0980371794
0.0981410323
0.0982448852
0.0983487382
0.0984525911
0.0985564441
0.0986602970
0.0987641500
0.0988680029
0.0989718559
0.0990757088
0.0991795617
0.0992834147
0.0993872676
0.0994911206
0.0995949735
0.0996988265
0.0998026794
0.0999065324
0.1000103853
0.1001142382
0.1002180912
0.1003219441
0.1004257971
0.1005296500
0.1006335030
0.1007373559
0.1008412088
0.1009450618
0.1010489147
0.1011527677
0.1012566206
0.1013604736
0.1014643265
0.1015681795
0.1016720324
0.1017758853
0.1018797383
0.1019835912
0.1020874442
0.1021912971
0.1022951501
0.1023990030
0.1025028560
0.1026067089
0.1027105618
0.1028144148
0.1029182677
0.1030221207
0.1031259736
0.1032298266
0.1033336795
0.1034375325
0.1035413854
0.1036452383
0.1037490913
0.1038529442
0.1039567972
0.1040606501
0.1041645031
0.1042683560
0.1043722090
0.1044760619
0.1045799148
0.1046837678
0.1047876207
0.1048914737
0.1049953266
0.1050991796
0.1052030325
0.1053068855
0.1054107384
0.1055145913
0.1056184443
0.1057222972
0.1058261502
0.1059300031
0.1060338561
0.1061377090
0.1062415619
0.1063454149
0.1064492678
0.1065531208
0.1066569737
0.1067608267
0.1068646796
0.1069685326
0.1070723855
0.1071762384
0.1072800914
0.1073839443
0.1074877973
0.1075916502
0.1076955032
0.1077993561
0.1079032091
0.1080070620
0.1081109149
0.1082147679
0.1083186208
0.1084224738
0.1085263267
0.1086301797
0.1087340326
0.1088378856
0.1089417385
0.1090455914
0.1091494444
0.1092532973
0.1093571503
0.1094610032
0.1095648562
0.1096687091
0.1097725621
0.1098764150
0.1099802679
0.1100841209
0.1101879738
0.1102918268
0.1103956797
0.1104995327
0.1106033856
0.1107072386
0.1108110915
0.1109149444
0.1110187974
0.1111226503
0.1112265033
0.1113303562
0.1114342092
0.1115380621
0.1116419150
0.1117457680
0.1118496209
0.1119534739
0.1120573268
0.1121611798
0.1122650327
0.1123688857
0.1124727386
0.1125765915
0.1126804445
0.1127842974
0.1128881504
0.1129920033
0.1130958563
0.1131997092
0.1133035622
0.1134074151
0.1135112680
0.1136151210
0.1137189739
0.1138228269
0.1139266798
0.1140305328
0.1141343857
0.1142382387
0.1143420916
0.1144459445
0.1145497975
0.1146536504
0.1147575034
0.1148613563
0.1149652093
0.1150690622
0.1151729152
0.1152767681
0.1153806210
0.1154844740
0.1155883269
0.1156921799
0.1157960328
0.1158998858
0.1160037387
0.1161075917
0.1162114446
0.1163152975
0.1164191505
0.1165230034
0.1166268564
0.1167307093
0.1168345623
0.1169384152
0.1170422681
0.1171461211
0.1172499740
0.1173538270
0.1174576799
0.1175615329
0.1176653858
0.1177692388
0.1178730917
0.1179769446
0.1180807976
0.1181846505
0.1182885035
0.1183923564
0.1184962094
0.1186000623
0.1187039153
0.1188077682
0.1189116211
0.1190154741
0.1191193270
0.1192231800
0.1193270329
0.1194308859
0.1195347388
0.1196385918
0.1197424447
0.1198462976
0.1199501506
0.1200540035
0.1201578565
0.1202617094
0.1203655624
0.1204694153
0.1205732683
0.1206771212
0.1207809741
0.1208848271
0.1209886800
0.1210925330
0.1211963859
0.1213002389
0.1214040918
0.1215079448
0.1216117977
0.1217156506
0.1218195036
0.1219233565
0.1220272095
0.1221310624
0.1222349154
0.1223387683
0.1224426212
0.1225464742
0.1226503271
0.1227541801
0.1228580330
0.1229618860
0.1230657389
0.1231695919
0.1232734448
0.1233772977
0.1234811507
0.1235850036
0.1236888566
0.1237927095
0.1238965625
0.1240004154
0.1241042684
0.1242081213
0.1243119742
0.1244158272
0.1245196801
0.1246235331
0.1247273860
0.1248312390
0.1249350919
0.1250389449
0.1251427978
0.1252466507
0.1253505037
0.1254543566
0.1255582096
0.1256620625
0.1257659155
0.1258697684
0.1259736214
0.1260774743
0.1261813272
0.1262851802
0.1263890331
0.1264928861
0.1265967390
0.1267005920
0.1268044449
0.1269082979
0.1270121508
0.1271160037
0.1272198567
0.1273237096
0.1274275626
0.1275314155
0.1276352685
0.1277391214
0.1278429743
0.1279468273
0.1280506802
0.1281545332
0.1282583861
0.1283622391
0.1284660920
0.1285699450
0.1286737979
0.1287776508
0.1288815038
0.1289853567
0.1290892097
0.1291930626
0.1292969156
0.1294007685
0.1295046215
0.1296084744
0.1297123273
0.1298161803
0.1299200332
0.1300238862
0.1301277391
0.1302315921
0.1303354450
0.1304392980
0.1305431509
0.1306470038
0.1307508568
0.1308547097
0.1309585627
0.1310624156
0.1311662686
0.1312701215
0.1313739745
0.1314778274
0.1315816803
0.1316855333
0.1317893862
0.1318932392
0.1319970921
0.1321009451
0.1322047980
0.1323086510
0.1324125039
0.1325163568
0.1326202098
0.1327240627
0.1328279157
0.1329317686
0.1330356216
0.1331394745
0.1332433274
0.1333471804
0.1334510333
0.1335548863
0.1336587392
0.1337625922
0.1338664451
0.1339702981
0.1340741510
0.1341780039
0.1342818569
0.1343857098
0.1344895628
0.1345934157
0.1346972687
0.1348011216
0.1349049746
0.1350088275
0.1351126804
0.1352165334
0.1353203863
0.1354242393
0.1355280922
0.1356319452
0.1357357981
0.1358396511
0.1359435040
0.1360473569
0.1361512099
0.1362550628
0.1363589158
0.1364627687
0.1365666217
0.1366704746
0.1367743276
0.1368781805
0.1369820334
0.1370858864
0.1371897393
0.1372935923
0.1373974452
0.1375012982
0.1376051511
0.1377090041
0.1378128570
0.1379167099
0.1380205629
0.1381244158
0.1382282688
0.1383321217
0.1384359747
0.1385398276
0.1386436805
0.1387475335
0.1388513864
0.1389552394
0.1390590923
0.1391629453
0.1392667982
0.1393706512
0.1394745041
0.1395783570
0.1396822100
0.1397860629
0.1398899159
0.1399937688
0.1400976218
0.1402014747
0.1403053277
0.1404091806
0.1405130335
0.1406168865
0.1407207394
0.1408245924
0.1409284453
0.1410322983
0.1411361512
0.1412400042
0.1413438571
0.1414477100
0.1415515630
0.1416554159
0.1417592689
0.1418631218
0.1419669748
0.1420708277
0.1421746807
0.1422785336
0.1423823865
0.1424862395
0.1425900924
0.1426939454
0.1427977983
0.1429016513
0.1430055042
0.1431093572
0.1432132101
0.1433170630
0.1434209160
0.1435247689
0.1436286219
0.1437324748
0.1438363278
0.1439401807
0.1440440336
0.1441478866
0.1442517395
0.1443555925
0.1444594454
0.1445632984
0.1446671513
0.1447710043
0.1448748572
0.1449787101
0.1450825631
0.1451864160
0.1452902690
0.1453941219
0.1454979749
0.1456018278
0.1457056808
0.1458095337
0.1459133866
0.1460172396
0.1461210925
0.1462249455
0.1463287984
0.1464326514
0.1465365043
0.1466403573
0.1467442102
0.1468480631
0.1469519161
0.1470557690
0.1471596220
0.1472634749
0.1473673279
0.1474711808
0.1475750338
0.1476788867
0.1477827396
0.1478865926
0.1479904455
0.1480942985
0.1481981514
0.1483020044
0.1484058573
0.1485097103
0.1486135632
0.1487174161
0.1488212691
0.1489251220
0.1490289750
0.1491328279
0.1492366809
0.1493405338
0.1494443867
0.1495482397
0.1496520926
0.1497559456
0.1498597985
0.1499636515
0.1500675044
0.1501713574
0.1502752103
0.1503790632
0.1504829162
0.1505867691
0.1506906221
0.1507944750
0.1508983280
0.1510021809
0.1511060339
0.1512098868
0.1513137397
0.1514175927
0.1515214456
0.1516252986
0.1517291515
0.1518330045
0.1519368574
0.1520407104
0.1521445633
0.1522484162
0.1523522692
0.1524561221
0.1525599751
0.1526638280
0.1527676810
0.1528715339
0.1529753869
0.1530792398
0.1531830927
0.1532869457
0.1533907986
0.1534946516
0.1535985045
0.1537023575
0.1538062104
0.1539100634
0.1540139163
0.1541177692
0.1542216222
0.1543254751
0.1544293281
0.1545331810
0.1546370340
0.1547408869
0.1548447398
0.1549485928
0.1550524457
0.1551562987
0.1552601516
0.1553640046
0.1554678575
0.1555717105
0.1556755634
0.1557794163
0.1558832693
0.1559871222
0.1560909752
0.1561948281
0.1562986811
0.1564025340
0.1565063870
0.1566102399
0.1567140928
0.1568179458
0.1569217987
0.1570256517
0.1571295046
0.1572333576
0.1573372105
0.1574410635
0.1575449164
0.1576487693
0.1577526223
0.1578564752
0.1579603282
0.1580641811
0.1581680341
0.1582718870
0.1583757400
0.1584795929
0.1585834458
0.1586872988
0.1587911517
0.1588950047
0.1589988576
0.1591027106
0.1592065635