# vtk DataFile Version 4.0
vtk output
ASCII
DATASET UNSTRUCTURED_GRID
POINTS 21663 double
344.59 78.6979 0.2 345.218 81.4385 0.168627 342.083 82.0417 0.168627 
103.596 440.309 0.494118 94.8982 452.546 0.486275 90.2534 433.871 0.509804 
58.3393 511.721 0.447059 10 546 0.521569 10 492 0.368627 
242.5 410 0.529412 246.5 408.5 0.352941 244 413.5 0.34902 
151.656 449.765 0.478431 145.379 449.704 0.435294 150.435 445.303 0.537255 
129.109 527.221 0.462745 150.119 519.615 0.482353 143.75 546 0.415686 
478.316 125.209 0.384314 477.984 125.734 0.411765 477.889 124.925 0.490196 
223.757 514.204 0.529412 242.374 510.868 0.552941 238.865 530.269 0.466667 
522.183 162.185 0.329412 521.984 161.959 0.329412 522.188 161.74 0.368627 
384.406 493.554 0.415686 386.481 497.285 0.541176 379.874 497.786 0.521569 
346.648 532.074 0.54902 331 546 0.533333 329.685 521.495 0.513725 
827.931 154.82 0.435294 828.597 157.964 0.490196 826.701 157.038 0.494118 
572.119 452.857 0.14902 564.749 454.745 0.145098 563.958 448.417 0.14902 
905.306 360.723 0.145098 893.245 361.779 0.152941 900.85 354.422 0.156863 
569.772 480.03 0.458824 577.352 485.368 0.505882 565.601 489.572 0.513725 
977.99 218.561 0.54902 984 225.25 0.317647 975.591 228.012 0.541176 
717.393 473.856 0.14902 716.5 480 0.294118 712.355 477.485 0.14902 
682.601 514.268 0.470588 672.554 513.158 0.47451 679.468 505.785 0.427451 
1059.48 289.635 0.137255 1057.5 292.5 0.368627 1056 289.5 0.243137 
797.75 453.592 0.172549 798 454.5 0.294118 797.5 454.5 0.290196 
1124.91 106.932 0.541176 1125.5 102 0.290196 1128.5 103.5 0.305882 
1152 167.25 0.317647 1153.5 170.5 0.290196 1148.2 169.004 0.160784 
886.253 528.961 0.411765 866 546 0.439216 866.389 527.565 0.478431 
1083.5 103.75 0.176471 1081.5 105 0.266667 1079.5 103.75 0.192157 
1068.99 293.321 0.133333 1062.6 288.077 0.137255 1068.63 285.059 0.133333 
1071.23 520.638 0.392157 1101.39 503.459 0.423529 1114.18 525.216 0.4 
979.688 538.644 0.427451 973 546 0.372549 969.829 537.365 0.458824 
259.59 93.6105 0.501961 262.135 96.2739 0.498039 258.464 96.5868 0.494118 
942.5 412.5 0.368627 945 410.75 0.341176 943.5 414 0.356863 
172.5 380 0.305882 173.5 381 0.329412 171.835 381.476 0.294118 
1001.19 319.401 0.305882 1001.11 319.17 0.305882 1001.25 319.252 0.305882 
229.836 76.6685 0.298039 229.531 76.4742 0.298039 229.771 76.1813 0.298039 
68.6508 431.61 0.521569 67.493 425.396 0.529412 71.5786 426.008 0.556863 
247.362 88.0199 0.341176 247.647 87.9436 0.309804 247.53 88.5141 0.341176 
211.446 364.184 0.388235 212.156 364.188 0.364706 211.875 364.75 0.388235 
765.681 324.681 0.286275 765.469 325.227 0.184314 765.139 324.98 0.286275 
518.026 160.734 0.270588 518.25 158.5 0.368627 519.221 159.731 0.290196 
440.564 144.69 0.517647 441.233 148.657 0.458824 438.511 147.076 0.47451 
879.284 201.952 0.501961 879.235 201.277 0.501961 879.945 201.615 0.501961 
1104.7 140.74 0.239216 1105 141 0.247059 1104.63 140.849 0.239216 
1147.5 416.5 0.266667 1150 415.5 0.45098 1149 418 0.392157 
551.5 162.5 0.32549 551.875 162.5 0.32549 551.708 162.812 0.32549 
962.534 484.425 0.309804 964.609 482.506 0.25098 965.31 484.958 0.278431 
596.087 198.33 0.411765 595.493 198.792 0.305882 595.5 198 0.305882 
749.708 102.521 0.486275 739.463 103.334 0.478431 743.2 93.2485 0.537255 
913.975 246.84 0.529412 909.5 246.5 0.317647 910.5 244 0.254902 
1044.99 515.037 0.396078 1042.76 479.043 0.423529 1068.55 487.74 0.431373 
753.5 150 0.32549 754 154.5 0.376471 750.309 152.632 0.14902 
700.148 36.4532 0.462745 683.342 57.571 0.396078 670.569 34.7968 0.552941 
560 165.75 0.317647 560.132 161.697 0.227451 564 164.5 0.294118 
70.522 361.268 0.588235 71 364.5 0.345098 67.5 362 0.25098 
111.059 306.804 0.6 107.711 303.186 0.552941 116 298.772 0.619608 
1213 52.5 0.305882 1214 48.5 0.423529 1216 51 0.333333 
416.431 468.559 0.145098 416.667 472.612 0.14902 411.21 470.895 0.152941 
871.43 306.484 0.415686 869.875 305.25 0.235294 871.5 304.5 0.329412 
166.758 383.26 0.388235 166.5 383 0.388235 166.84 382.903 0.411765 
307.627 451.352 0.152941 308.364 446.994 0.156863 310.557 451.216 0.156863 
212.366 58.2269 0.180392 214.5 61.5 0.329412 211.5 61 0.337255 
879.728 283.323 0.160784 879.917 283.133 0.160784 879.906 283.328 0.160784 
800.414 304.381 0.160784 798.576 303.229 0.156863 800.393 301.981 0.145098 
576 457 0.345098 580.3 462.917 0.505882 573.972 462.322 0.533333 
456.25 414 0.356863 454.875 409 0.254902 459.25 408.5 0.219608 
463.623 236.108 0.545098 465.5 237 0.423529 464.125 238.125 0.447059 
667.25 480.75 0.192157 665.5 482.5 0.384314 664.5 480.5 0.32549 
655.105 219.594 0.552941 660.435 215.332 0.45098 662.5 221.5 0.388235 
761.377 321.921 0.545098 762.118 322.119 0.470588 761.844 322.528 0.45098 
693.5 166.5 0.290196 695.674 170.363 0.407843 691.5 169.5 0.278431 
946.98 235.216 0.54902 955 242.5 0.396078 947.5 243.5 0.380392 
1105.35 139.073 0.447059 1104.96 138.542 0.454902 1105.8 138.853 0.517647 
797.466 443.337 0.145098 792.273 443.337 0.152941 797.75 439.615 0.145098 
799.157 316.856 0.466667 795 316 0.380392 798.5 314.5 0.270588 
1015.75 379.5 0.32549 1015.5 381.5 0.360784 1012.17 380.068 0.466667 
848.585 352.028 0.152941 848.11 353.059 0.145098 847.347 352.251 0.164706 
951.411 257.625 0.52549 953.5 258.5 0.419608 950.278 260.23 0.541176 
1058.52 74.2924 0.513725 1052.86 55.7736 0.490196 1074.09 72.2549 0.509804 
1117.98 457.689 0.376471 1122.33 455.117 0.431373 1120.16 462.021 0.4 
1025.09 421.242 0.396078 1033.99 431.893 0.360784 1016.54 437.429 0.392157 
396.955 181.545 0.145098 405.331 186.083 0.145098 398.059 190.565 0.145098 
91.3274 205.214 0.482353 89 200.5 0.294118 92 200 0.27451 
135.21 152.34 0.537255 147.649 128.917 0.509804 158.787 165.502 0.560784 
626.568 201.455 0.454902 629 201.5 0.368627 627.5 203 0.356863 
887.443 262.486 0.513725 888.277 266.723 0.466667 883.994 263.602 0.466667 
919.898 187.665 0.458824 916.246 189.281 0.494118 913.741 184.906 0.572549 
1035.42 121.596 0.545098 1033.68 118.104 0.52549 1040.99 117.642 0.537255 
906.261 165.949 0.435294 915.344 175.288 0.415686 907.478 178.919 0.427451 
201.744 320.603 0.282353 201.688 321.076 0.278431 200.969 320.938 0.329412 
1142.5 297.5 0.356863 1137.69 292.378 0.462745 1141.79 290.863 0.47451 
1010.34 161.292 0.164706 1014.25 160.333 0.168627 1011.76 163.501 0.164706 
243.187 368.02 0.14902 248.206 364.115 0.14902 248.819 370.707 0.145098 
1133.92 347.905 0.262745 1132.98 348 0.282353 1134.05 347 0.294118 
206.096 57.2799 0.435294 205.269 60 0.596078 202.668 56.5614 0.482353 
573.25 179.75 0.247059 571.25 181.75 0.384314 569 179.5 0.431373 
370.637 472.736 0.137255 367.008 469.475 0.164706 371.045 468.945 0.152941 
228.188 75.1875 0.286275 228.433 75.2287 0.286275 228 75.5 0.286275 
828.298 160.232 0.541176 828 162.5 0.380392 824.5 160 0.247059 
168.071 382.878 0.317647 168.505 382.427 0.317647 168.828 382.77 0.317647 
358.968 97.6372 0.317647 358.581 99.2847 0.223529 357.399 98.2713 0.309804 
210 60.75 0.227451 211.008 59.3248 0.215686 730.258 144.253 0.14902 
724.361 140.04 0.152941 729.842 138.399 0.156863 232.676 70.9439 0.145098 
233.858 69.5415 0.14902 234.275 70.9648 0.156863 1090.36 255.778 0.133333 
1088 260.5 0.133333 1084.41 252.98 0.137255 78.4014 369.816 0.380392 
78.5 369.5 0.380392 78.625 369.75 0.380392 832.059 140.427 0.52549 
838.15 135.35 0.415686 836.278 145.717 0.423529 309.266 261.41 0.494118 
317.268 260.048 0.52549 314 265.5 0.466667 376.808 229.346 0.52549 
378 233.5 0.466667 374.25 234 0.341176 376 212.5 0.309804 
368.97 220.348 0.466667 370 212.5 0.305882 874.692 195.288 0.313725 
875.422 196.384 0.403922 873.719 196.728 0.156863 78.6875 369.875 0.380392 
78.7236 369.668 0.380392 843.314 347.982 0.4 844.75 347.5 0.403922 
844.581 348.812 0.458824 161.805 448.354 0.443137 160.362 451.656 0.52549 
157.562 448.115 0.596078 1103.55 140.783 0.196078 1103.27 140.77 0.196078 
1103.45 140.601 0.196078 65.6025 410.921 0.509804 65.67 415.302 0.537255 
62.559 413.525 0.52549 766.218 325.372 0.254902 766.136 325.535 0.254902 
766.017 325.357 0.254902 765.816 325.711 0.184314 765.964 325.598 0.184314 
765.992 325.828 0.184314 480.155 442.619 0.145098 486.276 434.325 0.145098 
491.547 445.378 0.145098 361.351 200.572 0.372549 359.776 201.189 0.34902 
361.063 198.906 0.32549 987.5 326 0.223529 988.375 328.375 0.364706 
984.415 328.606 0.439216 1050.13 296.25 0.137255 1051.5 289.5 0.270588 
1053.5 294.5 0.317647 303.321 97.5743 0.6 311.5 100.5 0.427451 
304 104.5 0.419608 215.686 58.3945 0.168627 218.448 54.7252 0.141176 
221.074 56.8404 0.156863 861.497 288.701 0.160784 858.793 288.378 0.14902 
860.502 285.547 0.160784 875.654 284.766 0.172549 876.269 286.273 0.160784 
874.484 286.124 0.156863 1116.4 281.594 0.12549 1111.2 282.496 0.137255 
1114.4 278.244 0.129412 1111.61 425.419 0.133333 1101.5 427 0.380392 
1106.89 418.186 0.133333 235.5 475.5 0.356863 232.469 483.441 0.509804 
227.385 473.981 0.513725 235.75 414.5 0.254902 235.5 417 0.356863 
234.5 415.5 0.337255 763.49 323.742 0.329412 763.584 323.234 0.329412 
763.889 323.553 0.329412 1073.02 460.889 0.415686 1087.99 468.687 0.403922 
891.564 263.123 0.615686 912.614 194.937 0.345098 912.5 195.5 0.309804 
912.313 195.125 0.309804 997.952 222.871 0.156863 1006.04 211.643 0.160784 
1007.25 228.448 0.145098 933.397 202.975 0.560784 934 204.15 0.811765 
932.368 203.603 0.737255 506.278 484.5 0.568627 502.5 486 0.313725 
502.5 483 0.27451 465 463.389 0.529412 469.25 461.5 0.294118 
468.388 464.064 0.529412 441.537 407.805 0.152941 445.449 406.946 0.141176 
444.5 410.5 0.223529 886.879 258.904 0.196078 889.5 259.5 0.243137 
1136.38 203.75 0.435294 1134.5 205 0.321569 1134.5 202.5 0.321569 
1156.84 377.647 0.262745 1156.5 375.5 0.356863 1158 376.25 0.298039 
499.333 156.5 0.168627 499.5 153.5 0.482353 501 154 0.333333 
401.241 90.7215 0.611765 407.108 93.3539 0.541176 401.5 96.5 0.32549 
613.754 489.706 0.435294 605.272 479.664 0.647059 613.5 481 0.580392 
356.461 94.9191 0.231373 357.28 93.7353 0.243137 358.5 94.5 0.360784 
[...]
CELL_DATA 43166
SCALARS scalars float
LOOKUP_TABLE lookup_table
0 2.31669e-05 4.63338e-05 6.95008e-05 9.26677e-05 0.000115835 0.000139001 0.000162168 0.000185335 
0.000208502 0.000231669 0.000254836 0.000278003 0.00030117 0.000324337 0.000347504 0.000370671 0.000393838 
0.000417005 0.000440171 0.000463338 0.000486505 0.000509672 0.000532839 0.000556006 0.000579173 0.00060234 
0.000625507 0.000648674 0.000671841 0.000695008 0.000718174 0.000741341 0.000764508 0.000787675 0.000810842 
0.000834009 0.000857176 0.000880343 0.00090351 0.000926677 0.000949844 0.00097301 0.000996178 0.00101934 
0.00104251 0.00106568 0.00108885 0.00111201 0.00113518 0.00115835 0.00118151 0.00120468 0.00122785 
0.00125101 0.00127418 0.00129735 0.00132051 0.00134368 0.00136685 0.00139002 0.00141318 0.00143635 
0.00145952 0.00148268 0.00150585 0.00152902 0.00155218 0.00157535 0.00159852 0.00162168 0.00164485 
0.00166802 0.00169119 0.00171435 0.00173752 0.00176069 0.00178385 0.00180702 0.00183019 0.00185335 
0.00187652 0.00189969 0.00192285 0.00194602 0.00196919 0.00199235 0.00201552 0.00203869 0.00206186 
0.00208502 0.00210819 0.00213136 0.00215452 0.00217769 0.00220086 0.00222402 0.00224719 0.00227036 
0.00229352 0.00231669 0.00233986 0.00236303 0.00238619 0.00240936 0.00243253 0.00245569 0.00247886 
0.00250203 0.00252519 0.00254836 0.00257153 0.00259469 0.00261786 0.00264103 0.0026642 0.00268736 
0.00271053 0.0027337 0.00275686 0.00278003 0.0028032 0.00282636 0.00284953 0.0028727 0.00289586 
0.00291903 0.0029422 0.00296537 0.00298853 0.0030117 0.00303487 0.00305803 0.0030812 0.00310437 
0.00312753 0.0031507 0.00317387 0.00319703 0.0032202 0.00324337 0.00326654 0.0032897 0.00331287 
0.00333604 0.0033592 0.00338237 0.00340554 0.0034287 0.00345187 0.00347504 0.0034982 0.00352137 
0.00354454 0.00356771 0.00359087 0.00361404 0.00363721 0.00366037 0.00368354 0.00370671 0.00372987 
0.00375304 0.00377621 0.00379937 0.00382254 0.00384571 0.00386888 0.00389204 0.00391521 0.00393838 
0.00396154 0.00398471 0.00400788 0.00403104 0.00405421 0.00407738 0.00410054 0.00412371 0.00414688 
0.00417005 0.00419321 0.00421638 0.00423955 0.00426271 0.00428588 0.00430905 0.00433221 0.00435538 
0.00437855 0.00440171 0.00442488 0.00444805 0.00447121 0.00449438 0.00451755 0.00454072 0.00456388 
0.00458705 0.00461022 0.00463338 0.00465655 0.00467972 0.00470288 0.00472605 0.00474922 0.00477239 
0.00479555 0.00481872 0.00484189 0.00486505 0.00488822 0.00491139 0.00493455 0.00495772 0.00498089 
0.00500405 0.00502722 0.00505039 0.00507355 0.00509672 0.00511989 0.00514306 0.00516622 0.00518939 
0.00521256 0.00523572 0.00525889 0.00528206 0.00530522 0.00532839 0.00535156 0.00537472 0.00539789 
0.00542106 0.00544423 0.00546739 0.00549056 0.00551373 0.00553689 0.00556006 0.00558323 0.00560639 
0.00562956 0.00565273 0.00567589 0.00569906 0.00572223 0.0057454 0.00576856 0.00579173 0.0058149 
0.00583806 0.00586123 0.0058844 0.00590756 0.00593073 0.0059539 0.00597706 0.00600023 0.0060234 
0.00604657 0.00606973 0.0060929 0.00611607 0.00613923 0.0061624 0.00618557 0.00620873 0.0062319 
0.00625507 0.00627823 0.0063014 0.00632457 0.00634774 0.0063709 0.00639407 0.00641724 0.0064404 
0.00646357 0.00648674 0.0065099 0.00653307 0.00655624 0.0065794 0.00660257 0.00662574 0.00664891 
0.00667207 0.00669524 0.00671841 0.00674157 0.00676474 0.00678791 0.00681107 0.00683424 0.00685741 
0.00688057 0.00690374 0.00692691 0.00695008 0.00697324 0.00699641 0.00701958 0.00704274 0.00706591 
0.00708908 0.00711224 0.00713541 0.00715858 0.00718174 0.00720491 0.00722808 0.00725124 0.00727441 
0.00729758 0.00732075 0.00734391 0.00736708 0.00739025 0.00741341 0.00743658 0.00745975 0.00748291 
0.00750608 0.00752925 0.00755242 0.00757558 0.00759875 0.00762192 0.00764508 0.00766825 0.00769142 
0.00771458 0.00773775 0.00776092 0.00778408 0.00780725 0.00783042 0.00785359 0.00787675 0.00789992 
0.00792309 0.00794625 0.00796942 0.00799259 0.00801575 0.00803892 0.00806209 0.00808525 0.00810842 
0.00813159 0.00815476 0.00817792 0.00820109 0.00822426 0.00824742 0.00827059 0.00829376 0.00831692 
0.00834009 0.00836326 0.00838642 0.00840959 0.00843276 0.00845592 0.00847909 0.00850226 0.00852543 
0.00854859 0.00857176 0.00859493 0.00861809 0.00864126 0.00866443 0.00868759 0.00871076 0.00873393 
0.00875709 0.00878026 0.00880343 0.0088266 0.00884976 0.00887293 0.0088961 0.00891926 0.00894243 
0.0089656 0.00898876 0.00901193 0.0090351 0.00905827 0.00908143 0.0091046 0.00912777 0.00915093 
0.0091741 0.00919727 0.00922043 0.0092436 0.00926677 0.00928993 0.0093131 0.00933627 0.00935943 
0.0093826 0.00940577 0.00942894 0.0094521 0.00947527 0.00949844 0.0095216 0.00954477 0.00956794 
0.0095911 0.00961427 0.00963744 0.0096606 0.00968377 0.00970694 0.00973011 0.00975327 0.00977644 
0.00979961 0.00982277 0.00984594 0.00986911 0.00989227 0.00991544 0.00993861 0.00996177 0.00998494 
0.0100081 0.0100313 0.0100544 0.0100776 0.0101008 0.0101239 0.0101471 0.0101703 0.0101934 
0.0102166 0.0102398 0.0102629 0.0102861 0.0103093 0.0103324 0.0103556 0.0103788 0.0104019 
0.0104251 0.0104483 0.0104714 0.0104946 0.0105178 0.0105409 0.0105641 0.0105873 0.0106104 
0.0106336 0.0106568 0.0106799 0.0107031 0.0107263 0.0107494 0.0107726 0.0107958 0.010819 
0.0108421 0.0108653 0.0108885 0.0109116 0.0109348 0.010958 0.0109811 0.0110043 0.0110275 
0.0110506 0.0110738 0.011097 0.0111201 0.0111433 0.0111665 0.0111896 0.0112128 0.011236 
0.0112591 0.0112823 0.0113055 0.0113286 0.0113518 0.011375 0.0113981 0.0114213 0.0114445 
0.0114676 0.0114908 0.011514 0.0115371 0.0115603 0.0115835 0.0116066 0.0116298 0.011653 
0.0116761 0.0116993 0.0117225 0.0117456 0.0117688 0.011792 0.0118151 0.0118383 0.0118615 
0.0118846 0.0119078 0.011931 0.0119541 0.0119773 0.0120005 0.0120236 0.0120468 0.01207 
0.0120931 0.0121163 0.0121395 0.0121626 0.0121858 0.012209 0.0122321 0.0122553 0.0122785 
0.0123016 0.0123248 0.012348 0.0123711 0.0123943 0.0124175 0.0124406 0.0124638 0.012487 
0.0125101 0.0125333 0.0125565 0.0125796 0.0126028 0.012626 0.0126491 0.0126723 0.0126955 
0.0127186 0.0127418 0.012765 0.0127881 0.0128113 0.0128345 0.0128576 0.0128808 0.012904 
0.0129271 0.0129503 0.0129735 0.0129966 0.0130198 0.013043 0.0130661 0.0130893 0.0131125 
0.0131356 0.0131588 0.013182 0.0132051 0.0132283 0.0132515 0.0132746 0.0132978 0.013321 
0.0133441 0.0133673 0.0133905 0.0134136 0.0134368 0.01346 0.0134831 0.0135063 0.0135295 
0.0135526 0.0135758 0.013599 0.0136221 0.0136453 0.0136685 0.0136916 0.0137148 0.013738 
0.0137611 0.0137843 0.0138075 0.0138306 0.0138538 0.013877 0.0139002 0.0139233 0.0139465 
0.0139697 0.0139928 0.014016 0.0140392 0.0140623 0.0140855 0.0141087 0.0141318 0.014155 
0.0141782 0.0142013 0.0142245 0.0142477 0.0142708 0.014294 0.0143172 0.0143403 0.0143635 
0.0143867 0.0144098 0.014433 0.0144562 0.0144793 0.0145025 0.0145257 0.0145488 0.014572 
0.0145952 0.0146183 0.0146415 0.0146647 0.0146878 0.014711 0.0147342 0.0147573 0.0147805 
0.0148037 0.0148268 0.01485 0.0148732 0.0148963 0.0149195 0.0149427 0.0149658 0.014989 
0.0150122 0.0150353 0.0150585 0.0150817 0.0151048 0.015128 0.0151512 0.0151743 0.0151975 
0.0152207 0.0152438 0.015267 0.0152902 0.0153133 0.0153365 0.0153597 0.0153828 0.015406 
0.0154292 0.0154523 0.0154755 0.0154987 0.0155218 0.015545 0.0155682 0.0155913 0.0156145 
0.0156377 0.0156608 0.015684 0.0157072 0.0157303 0.0157535 0.0157767 0.0157998 0.015823 
0.0158462 0.0158693 0.0158925 0.0159157 0.0159388 0.015962 0.0159852 0.0160083 0.0160315 
0.0160547 0.0160778 0.016101 0.0161242 0.0161473 0.0161705 0.0161937 0.0162168 0.01624 
0.0162632 0.0162863 0.0163095 0.0163327 0.0163558 0.016379 0.0164022 0.0164253 0.0164485 
0.0164717 0.0164948 0.016518 0.0165412 0.0165643 0.0165875 0.0166107 0.0166338 0.016657 
0.0166802 0.0167033 0.0167265 0.0167497 0.0167728 0.016796 0.0168192 0.0168423 0.0168655 
0.0168887 0.0169118 0.016935 0.0169582 0.0169814 0.0170045 0.0170277 0.0170509 0.017074 
0.0170972 0.0171204 0.0171435 0.0171667 0.0171899 0.017213 0.0172362 0.0172594 0.0172825 
0.0173057 0.0173289 0.017352 0.0173752 0.0173984 0.0174215 0.0174447 0.0174679 0.017491 
0.0175142 0.0175374 0.0175605 0.0175837 0.0176069 0.01763 0.0176532 0.0176764 0.0176995 
0.0177227 0.0177459 0.017769 0.0177922 0.0178154 0.0178385 0.0178617 0.0178849 0.017908 
0.0179312 0.0179544 0.0179775 0.0180007 0.0180239 0.018047 0.0180702 0.0180934 0.0181165 
0.0181397 0.0181629 0.018186 0.0182092 0.0182324 0.0182555 0.0182787 0.0183019 0.018325 
0.0183482 0.0183714 0.0183945 0.0184177 0.0184409 0.018464 0.0184872 0.0185104 0.0185335 
0.0185567 0.0185799 0.018603 0.0186262 0.0186494 0.0186725 0.0186957 0.0187189 0.018742 
0.0187652 0.0187884 0.0188115 0.0188347 0.0188579 0.018881 0.0189042 0.0189274 0.0189505 
0.0189737 0.0189969 0.01902 0.0190432 0.0190664 0.0190895 0.0191127 0.0191359 0.019159 
0.0191822 0.0192054 0.0192285 0.0192517 0.0192749 0.019298 0.0193212 0.0193444 0.0193675 
0.0193907 0.0194139 0.019437 0.0194602 0.0194834 0.0195065 0.0195297 0.0195529 0.019576 
0.0195992 0.0196224 0.0196455 0.0196687 0.0196919 0.019715 0.0197382 0.0197614 0.0197845 
0.0198077 0.0198309 0.019854 0.0198772 0.0199004 0.0199235 0.0199467 0.0199699 0.0199931 
0.0200162 0.0200394 0.0200626 0.0200857 0.0201089 0.0201321 0.0201552 0.0201784 0.0202016 
0.0202247 0.0202479 0.0202711 0.0202942 0.0203174 0.0203406 0.0203637 0.0203869 0.0204101 
0.0204332 0.0204564 0.0204796 0.0205027 0.0205259 0.0205491 0.0205722 0.0205954 0.0206186 
0.0206417 0.0206649 0.0206881 0.0207112 0.0207344 0.0207576 0.0207807 0.0208039 0.0208271 
0.0208502 0.0208734 0.0208966 0.0209197 0.0209429 0.0209661 0.0209892 0.0210124 0.0210356 
0.0210587 0.0210819 0.0211051 0.0211282 0.0211514 0.0211746 0.0211977 0.0212209 0.0212441 
0.0212672 0.0212904 0.0213136 0.0213367 0.0213599 0.0213831 0.0214062 0.0214294 0.0214526 
0.0214757 0.0214989 0.0215221 0.0215452 0.0215684 0.0215916 0.0216147 0.0216379 0.0216611 
0.0216842 0.0217074 0.0217306 0.0217537 0.0217769 0.0218001 0.0218232 0.0218464 0.0218696 
0.0218927 0.0219159 0.0219391 0.0219622 0.0219854 0.0220086 0.0220317 0.0220549 0.0220781 
0.0221012 0.0221244 0.0221476 0.0221707 0.0221939 0.0222171 0.0222402 0.0222634 0.0222866 
0.0223097 0.0223329 0.0223561 0.0223792 0.0224024 0.0224256 0.0224487 0.0224719 0.0224951 
0.0225182 0.0225414 0.0225646 0.0225877 0.0226109 0.0226341 0.0226572 0.0226804 0.0227036 
0.0227267 0.0227499 0.0227731 0.0227962 0.0228194 0.0228426 0.0228657 0.0228889 0.0229121 
0.0229352 0.0229584 0.0229816 0.0230047 0.0230279 0.0230511 0.0230743 0.0230974 0.0231206 
0.0231438 0.0231669 0.0231901 0.0232133 0.0232364 0.0232596 0.0232828 0.0233059 0.0233291 
0.0233523 0.0233754 0.0233986 0.0234218 0.0234449 0.0234681 0.0234913 0.0235144 0.0235376 
0.0235608 0.0235839 0.0236071 0.0236303 0.0236534 0.0236766 0.0236998 0.0237229 0.0237461 
0.0237693 0.0237924 0.0238156 0.0238388 0.0238619 0.0238851 0.0239083 0.0239314 0.0239546 
0.0239778 0.0240009 0.0240241 0.0240473 0.0240704 0.0240936 0.0241168 0.0241399 0.0241631 
0.0241863 0.0242094 0.0242326 0.0242558 0.0242789 0.0243021 0.0243253 0.0243484 0.0243716 
0.0243948 0.0244179 0.0244411 0.0244643 0.0244874 0.0245106 0.0245338 0.0245569 0.0245801 
0.0246033 0.0246264 0.0246496 0.0246728 0.0246959 0.0247191 0.0247423 0.0247654 0.0247886 
0.0248118 0.0248349 0.0248581 0.0248813 0.0249044 0.0249276 0.0249508 0.0249739 0.0249971 
0.0250203 0.0250434 0.0250666 0.0250898 0.0251129 0.0251361 0.0251593 0.0251824 0.0252056 
0.0252288 0.0252519 0.0252751 0.0252983 0.0253214 0.0253446 0.0253678 0.0253909 0.0254141 
0.0254373 0.0254604 0.0254836 0.0255068 0.0255299 0.0255531 0.0255763 0.0255994 0.0256226 
0.0256458 0.0256689 0.0256921 0.0257153 0.0257384 0.0257616 0.0257848 0.0258079 0.0258311 
0.0258543 0.0258774 0.0259006 0.0259238 0.0259469 0.0259701 0.0259933 0.0260164 0.0260396 
0.0260628 0.0260859 0.0261091 0.0261323 0.0261554 0.0261786 0.0262018 0.026225 0.0262481 
0.0262713 0.0262945 0.0263176 0.0263408 0.026364 0.0263871 0.0264103 0.0264335 0.0264566 
0.0264798 0.026503 0.0265261 0.0265493 0.0265725 0.0265956 0.0266188 0.026642 0.0266651 
0.0266883 0.0267115 0.0267346 0.0267578 0.026781 0.0268041 0.0268273 0.0268505 0.0268736 
0.0268968 0.02692 0.0269431 0.0269663 0.0269895 0.0270126 0.0270358 0.027059 0.0270821 
0.0271053 0.0271285 0.0271516 0.0271748 0.027198 0.0272211 0.0272443 0.0272675 0.0272906 
0.0273138 0.027337 0.0273601 0.0273833 0.0274065 0.0274296 0.0274528 0.027476 0.0274991 
0.0275223 0.0275455 0.0275686 0.0275918 0.027615 0.0276381 0.0276613 0.0276845 0.0277076 
0.0277308 0.027754 0.0277771 0.0278003 0.0278235 0.0278466 0.0278698 0.027893 0.0279161 
0.0279393 0.0279625 0.0279856 0.0280088 0.028032 0.0280551 0.0280783 0.0281015 0.0281246 
0.0281478 0.028171 0.0281941 0.0282173 0.0282405 0.0282636 0.0282868 0.02831 0.0283331 
0.0283563 0.0283795 0.0284026 0.0284258 0.028449 0.0284721 0.0284953 0.0285185 0.0285416 
0.0285648 0.028588 0.0286111 0.0286343 0.0286575 0.0286806 0.0287038 0.028727 0.0287501 
0.0287733 0.0287965 0.0288196 0.0288428 0.028866 0.0288891 0.0289123 0.0289355 0.0289586 
0.0289818 0.029005 0.0290281 0.0290513 0.0290745 0.0290976 0.0291208 0.029144 0.0291671 
0.0291903 0.0292135 0.0292367 0.0292598 0.029283 0.0293062 0.0293293 0.0293525 0.0293757 
0.0293988 0.029422 0.0294452 0.0294683 0.0294915 0.0295147 0.0295378 0.029561 0.0295842 
0.0296073 0.0296305 0.0296537 0.0296768 0.0297 0.0297232 0.0297463 0.0297695 0.0297927 
0.0298158 0.029839 0.0298622 0.0298853 0.0299085 0.0299317 0.0299548 0.029978 0.0300012 
0.0300243 0.0300475 0.0300707 0.0300938 0.030117 0.0301402 0.0301633 0.0301865 0.0302097 
0.0302328 0.030256 0.0302792 0.0303023 0.0303255 0.0303487 0.0303718 0.030395 0.0304182 
0.0304413 0.0304645 0.0304877 0.0305108 0.030534 0.0305572 0.0305803 0.0306035 0.0306267 
0.0306498 0.030673 0.0306962 0.0307193 0.0307425 0.0307657 0.0307888 0.030812 0.0308352 
0.0308583 0.0308815 0.0309047 0.0309278 0.030951 0.0309742 0.0309973 0.0310205 0.0310437 
0.0310668 0.03109 0.0311132 0.0311363 0.0311595 0.0311827 0.0312058 0.031229 0.0312522 
0.0312753 0.0312985 0.0313217 0.0313448 0.031368 0.0313912 0.0314143 0.0314375 0.0314607 
0.0314838 0.031507 0.0315302 0.0315533 0.0315765 0.0315997 0.0316228 0.031646 0.0316692 
0.0316923 0.0317155 0.0317387 0.0317618 0.031785 0.0318082 0.0318313 0.0318545 0.0318777 
0.0319008 0.031924 0.0319472 0.0319703 0.0319935 0.0320167 0.0320398 0.032063 0.0320862 
0.0321093 0.0321325 0.0321557 0.0321788 0.032202 0.0322252 0.0322483 0.0322715 0.0322947 
0.0323179 0.032341 0.0323642 0.0323873 0.0324105 0.0324337 0.0324569 0.03248 0.0325032 
0.0325264 0.0325495 0.0325727 0.0325959 0.032619 0.0326422 0.0326654 0.0326885 0.0327117 
0.0327349 0.032758 0.0327812 0.0328044 0.0328275 0.0328507 0.0328739 0.032897 0.0329202 
0.0329434 0.0329665 0.0329897 0.0330129 0.033036 0.0330592 0.0330824 0.0331055 0.0331287 
0.0331519 0.033175 0.0331982 0.0332214 0.0332445 0.0332677 0.0332909 0.033314 0.0333372 
0.0333604 0.0333835 0.0334067 0.0334299 0.033453 0.0334762 0.0334994 0.0335225 0.0335457 
0.0335689 0.033592 0.0336152 0.0336384 0.0336615 0.0336847 0.0337079 0.033731 0.0337542 
0.0337774 0.0338005 0.0338237 0.0338469 0.03387 0.0338932 0.0339164 0.0339395 0.0339627 
0.0339859 0.034009 0.0340322 0.0340554 0.0340785 0.0341017 0.0341249 0.034148 0.0341712 
0.0341944 0.0342175 0.0342407 0.0342639 0.034287 0.0343102 0.0343334 0.0343565 0.0343797 
0.0344029 0.034426 0.0344492 0.0344724 0.0344955 0.0345187 0.0345419 0.034565 0.0345882 
0.0346114 0.0346345 0.0346577 0.0346809 0.034704 0.0347272 0.0347504 0.0347735 0.0347967 
0.0348199 0.034843 0.0348662 0.0348894 0.0349125 0.0349357 0.0349589 0.034982 0.0350052 
0.0350284 0.0350515 0.0350747 0.0350979 0.035121 0.0351442 0.0351674 0.0351905 0.0352137 
0.0352369 0.03526 0.0352832 0.0353064 0.0353296 0.0353527 0.0353759 0.035399 0.0354222 
0.0354454 0.0354686 0.0354917 0.0355149 0.0355381 0.0355612 0.0355844 0.0356076 0.0356307 
0.0356539 0.0356771 0.0357002 0.0357234 0.0357466 0.0357697 0.0357929 0.0358161 0.0358392 
0.0358624 0.0358856 0.0359087 0.0359319 0.0359551 0.0359782 0.0360014 0.0360246 0.0360477 
0.0360709 0.0360941 0.0361172 0.0361404 0.0361636 0.0361867 0.0362099 0.0362331 0.0362562 
0.0362794 0.0363026 0.0363257 0.0363489 0.0363721 0.0363952 0.0364184 0.0364416 0.0364647 
0.0364879 0.0365111 0.0365342 0.0365574 0.0365806 0.0366037 0.0366269 0.0366501 0.0366732 
0.0366964 0.0367196 0.0367427 0.0367659 0.0367891 0.0368122 0.0368354 0.0368586 0.0368817 
0.0369049 0.0369281 0.0369512 0.0369744 0.0369976 0.0370207 0.0370439 0.0370671 0.0370902 
0.0371134 0.0371366 0.0371597 0.0371829 0.0372061 0.0372292 0.0372524 0.0372756 0.0372987 
0.0373219 0.0373451 0.0373682 0.0373914 0.0374146 0.0374377 0.0374609 0.0374841 0.0375072 
0.0375304 0.0375536 0.0375767 0.0375999 0.0376231 0.0376462 0.0376694 0.0376926 0.0377157 
0.0377389 0.0377621 0.0377852 0.0378084 0.0378316 0.0378547 0.0378779 0.0379011 0.0379242 
0.0379474 0.0379706 0.0379937 0.0380169 0.0380401 0.0380632 0.0380864 0.0381096 0.0381327 
0.0381559 0.0381791 0.0382022 0.0382254 0.0382486 0.0382717 0.0382949 0.0383181 0.0383413 
0.0383644 0.0383876 0.0384107 0.0384339 0.0384571 0.0384803 0.0385034 0.0385266 0.0385498 
0.0385729 0.0385961 0.0386193 0.0386424 0.0386656 0.0386888 0.0387119 0.0387351 0.0387583 
0.0387814 0.0388046 0.0388278 0.0388509 0.0388741 0.0388973 0.0389204 0.0389436 0.0389668 
0.0389899 0.0390131 0.0390363 0.0390594 0.0390826 0.0391058 0.0391289 0.0391521 0.0391753 
0.0391984 0.0392216 0.0392448 0.0392679 0.0392911 0.0393143 0.0393374 0.0393606 0.0393838 
0.0394069 0.0394301 0.0394533 0.0394764 0.0394996 0.0395228 0.0395459 0.0395691 0.0395923 
0.0396154 0.0396386 0.0396618 0.0396849 0.0397081 0.0397313 0.0397544 0.0397776 0.0398008 
0.0398239 0.0398471 0.0398703 0.0398934 0.0399166 0.0399398 0.0399629 0.0399861 0.0400093 
0.0400324 0.0400556 0.0400788 0.0401019 0.0401251 0.0401483 0.0401714 0.0401946 0.0402178 
0.0402409 0.0402641 0.0402873 0.0403104 0.0403336 0.0403568 0.0403799 0.0404031 0.0404263 
0.0404494 0.0404726 0.0404958 0.0405189 0.0405421 0.0405653 0.0405884 0.0406116 0.0406348 
0.0406579 0.0406811 0.0407043 0.0407274 0.0407506 0.0407738 0.0407969 0.0408201 0.0408433 
0.0408664 0.0408896 0.0409128 0.0409359 0.0409591 0.0409823 0.0410054 0.0410286 0.0410518 
0.0410749 0.0410981 0.0411213 0.0411444 0.0411676 0.0411908 0.0412139 0.0412371 0.0412603 
0.0412834 0.0413066 0.0413298 0.0413529 0.0413761 0.0413993 0.0414224 0.0414456 0.0414688 
0.0414919 0.0415151 0.0415383 0.0415615 0.0415846 0.0416078 0.0416309 0.0416541 0.0416773 
0.0417005 0.0417236 0.0417468 0.04177 0.0417931 0.0418163 0.0418395 0.0418626 0.0418858 
0.041909 0.0419321 0.0419553 0.0419785 0.0420016 0.0420248 0.042048 0.0420711 0.0420943 
0.0421175 0.0421406 0.0421638 0.042187 0.0422101 0.0422333 0.0422565 0.0422796 0.0423028 
0.042326 0.0423491 0.0423723 0.0423955 0.0424186 0.0424418 0.042465 0.0424881 0.0425113 
0.0425345 0.0425576 0.0425808 0.042604 0.0426271 0.0426503 0.0426735 0.0426966 0.0427198 
0.042743 0.0427661 0.0427893 0.0428125 0.0428356 0.0428588 0.042882 0.0429051 0.0429283 
0.0429515 0.0429746 0.0429978 0.043021 0.0430441 0.0430673 0.0430905 0.0431136 0.0431368 
0.04316 0.0431831 0.0432063 0.0432295 0.0432526 0.0432758 0.043299 0.0433221 0.0433453 
0.0433685 0.0433916 0.0434148 0.043438 0.0434611 0.0434843 0.0435075 0.0435306 0.0435538 
0.043577 0.0436001 0.0436233 0.0436465 0.0436696 0.0436928 0.043716 0.0437391 0.0437623 
0.0437855 0.0438086 0.0438318 0.043855 0.0438781 0.0439013 0.0439245 0.0439476 0.0439708 
0.043994 0.0440171 0.0440403 0.0440635 0.0440866 0.0441098 0.044133 0.0441561 0.0441793 
0.0442025 0.0442256 0.0442488 0.044272 0.0442951 0.0443183 0.0443415 0.0443646 0.0443878 
0.044411 0.0444341 0.0444573 0.0444805 0.0445036 0.0445268 0.04455 0.0445732 0.0445963 
0.0446195 0.0446426 0.0446658 0.044689 0.0447122 0.0447353 0.0447585 0.0447817 0.0448048 
0.044828 0.0448512 0.0448743 0.0448975 0.0449207 0.0449438 0.044967 0.0449902 0.0450133 